       N       E                     dE             d eps       ncg     rms          rms(c)
DAV:   1     0.525508468315E+04    0.52551E+04   -0.28145E+05  9216   0.147E+03
DAV:   2    -0.431255074197E+03   -0.56863E+04   -0.54848E+04 12416   0.327E+02
DAV:   3    -0.126254144047E+04   -0.83129E+03   -0.82239E+03 11072   0.133E+02
DAV:   4    -0.129698534756E+04   -0.34444E+02   -0.34150E+02 13856   0.386E+01
DAV:   5    -0.129757901294E+04   -0.59367E+00   -0.59071E+00 12000   0.394E+00
DAV:   6    -0.129761211107E+04   -0.33098E-01   -0.33066E-01 14304   0.114E+00
DAV:   7    -0.129761266739E+04   -0.55632E-03   -0.55583E-03 12000   0.110E-01
DAV:   8    -0.129761269105E+04   -0.23653E-04   -0.23650E-04 14304   0.251E-02    0.898E+01
DAV:   9    -0.159003244918E+04   -0.29242E+03   -0.32104E+03 14848   0.821E+01    0.319E+02
DAV:  10    -0.149891694680E+04    0.91116E+02   -0.25783E+02 11520   0.317E+01    0.209E+02
DAV:  11    -0.121175447908E+04    0.28716E+03   -0.10031E+03 13728   0.992E+01    0.967E+01
DAV:  12    -0.117561707889E+04    0.36137E+02   -0.73510E+02 13408   0.696E+01    0.574E+01
DAV:  13    -0.117412113042E+04    0.14959E+01   -0.10632E+02 11424   0.145E+01    0.247E+01
DAV:  14    -0.119370931145E+04   -0.19588E+02   -0.20779E+02 12768   0.235E+01    0.599E+01
DAV:  15    -0.117793386522E+04    0.15775E+02   -0.25428E+02 13440   0.271E+01    0.367E+01
DAV:  16    -0.117692763081E+04    0.10062E+01   -0.14203E+02 13344   0.195E+01    0.433E+01
DAV:  17    -0.116984306959E+04    0.70846E+01   -0.81360E+01 13344   0.162E+01    0.199E+01
DAV:  18    -0.117177425167E+04   -0.19312E+01   -0.20835E+01 13376   0.733E+00    0.237E+01
DAV:  19    -0.117059144019E+04    0.11828E+01   -0.52000E+00 13152   0.507E+00    0.140E+01
DAV:  20    -0.117116721058E+04   -0.57577E+00   -0.20576E+00 12480   0.247E+00    0.110E+01
DAV:  21    -0.117205777757E+04   -0.89057E+00   -0.12317E+00 12160   0.207E+00    0.121E+01
DAV:  22    -0.117259671969E+04   -0.53894E+00   -0.26688E-01 11776   0.123E+00    0.110E+01
DAV:  23    -0.117323125180E+04   -0.63453E+00   -0.16785E+00 11936   0.247E+00    0.974E+00
DAV:  24    -0.117350740832E+04   -0.27616E+00   -0.31199E-01 12032   0.116E+00    0.946E+00
DAV:  25    -0.117362339511E+04   -0.11599E+00   -0.48599E-02 11904   0.561E-01    0.963E+00
DAV:  26    -0.117381020462E+04   -0.18681E+00   -0.12744E-01 12128   0.127E+00    0.815E+00
DAV:  27    -0.117401434554E+04   -0.20414E+00   -0.36483E-01 12640   0.170E+00    0.595E+00
DAV:  28    -0.117412080817E+04   -0.10646E+00   -0.31485E-01 12864   0.941E-01    0.511E+00
DAV:  29    -0.117412520830E+04   -0.44001E-02   -0.45506E-01 13024   0.129E+00    0.415E+00
DAV:  30    -0.117404098628E+04    0.84222E-01   -0.14835E-01 13088   0.157E+00    0.275E+00
DAV:  31    -0.117405804823E+04   -0.17062E-01   -0.89755E-02 12192   0.485E-01    0.248E+00
DAV:  32    -0.117406698513E+04   -0.89369E-02   -0.52508E-02 11744   0.331E-01    0.224E+00
DAV:  33    -0.117411587144E+04   -0.48886E-01   -0.70503E-02 12224   0.447E-01    0.189E+00
DAV:  34    -0.117413947278E+04   -0.23601E-01   -0.28836E-02 11904   0.477E-01    0.143E+00
DAV:  35    -0.117413288875E+04    0.65840E-02   -0.10129E-02 11776   0.285E-01    0.115E+00
DAV:  36    -0.117413985889E+04   -0.69701E-02   -0.51922E-03 12352   0.256E-01    0.862E-01
DAV:  37    -0.117417351037E+04   -0.33651E-01   -0.92336E-03 11584   0.206E-01    0.637E-01
DAV:  38    -0.117418772332E+04   -0.14213E-01   -0.18172E-03 12512   0.105E-01    0.471E-01
DAV:  39    -0.117420345264E+04   -0.15729E-01   -0.15918E-03 11552   0.882E-02    0.277E-01
DAV:  40    -0.117421328932E+04   -0.98367E-02   -0.97829E-04 12544   0.778E-02    0.137E-01
DAV:  41    -0.117421790213E+04   -0.46128E-02   -0.27912E-04 12736   0.469E-02    0.736E-02
DAV:  42    -0.117422463149E+04   -0.67294E-02   -0.28712E-04 11360   0.365E-02    0.383E-02
DAV:  43    -0.117422750824E+04   -0.28768E-02   -0.80975E-05 12416   0.219E-02    0.341E-02
DAV:  44    -0.117423056249E+04   -0.30542E-02   -0.62271E-05 11936   0.200E-02    0.364E-02
DAV:  45    -0.117423324560E+04   -0.26831E-02   -0.80848E-05 10784   0.165E-02    0.380E-02
DAV:  46    -0.117423407882E+04   -0.83322E-03   -0.19431E-05 11808   0.851E-03    0.337E-02
DAV:  47    -0.117423478894E+04   -0.71012E-03   -0.14972E-05 10208   0.749E-03    0.267E-02
DAV:  48    -0.117423542831E+04   -0.63937E-03   -0.23967E-05  9856   0.644E-03    0.189E-02
DAV:  49    -0.117423567953E+04   -0.25122E-03   -0.93425E-06  9504   0.395E-03    0.118E-02
DAV:  50    -0.117423585208E+04   -0.17255E-03   -0.71840E-06  9088   0.375E-03    0.626E-03
DAV:  51    -0.117423593196E+04   -0.79880E-04   -0.23493E-06  8576   0.230E-03    0.395E-03
DAV:  52    -0.117423598407E+04   -0.52107E-04   -0.98071E-07  7776   0.191E-03    0.274E-03
DAV:  53    -0.117423604915E+04   -0.65082E-04   -0.14303E-06  8224   0.184E-03    0.290E-03
DAV:  54    -0.117423608340E+04   -0.34252E-04   -0.43150E-07  7264   0.173E-03    0.193E-03
DAV:  55    -0.117423612784E+04   -0.44440E-04   -0.70761E-07  7680   0.129E-03    0.152E-03
DAV:  56    -0.117423616419E+04   -0.36350E-04   -0.54081E-07  7520   0.107E-03    0.118E-03
DAV:  57    -0.117423619181E+04   -0.27614E-04   -0.53586E-07  7584   0.114E-03    0.934E-04
DAV:  58    -0.117423620623E+04   -0.14421E-04   -0.33007E-07  7232   0.791E-04    0.823E-04
DAV:  59    -0.117423621168E+04   -0.54548E-05   -0.15924E-07  6912   0.664E-04    0.525E-04
DAV:  60    -0.117423621462E+04   -0.29371E-05   -0.11621E-07  7232   0.514E-04    0.383E-04
DAV:  61    -0.117423621613E+04   -0.15148E-05   -0.80552E-08  7008   0.424E-04    0.303E-04
DAV:  62    -0.117423621680E+04   -0.66781E-06   -0.48639E-08  6656   0.339E-04
   1 F= -.11860948E+04 E0= -.11860829E+04  d E =-.118609E+04  mag=     0.0006
