 vasp.6.0.8 29Jun18 (build Mar 14 2019 11:44:20) complex                        
  
 executed on             LinuxIFC date 2020.12.21  11:41:06
 running  128 mpi-ranks, with    1 threads/rank
 distrk:  each k-point on  128 cores,    1 groups
 distr:  one band on NCORES_PER_BAND=   4 cores,   32 groups


--------------------------------------------------------------------------------------------------------


 INCAR:
 POTCAR:    PAW_PBE C 08Apr2002                   
 POTCAR:    PAW_PBE Fe 06Sep2000                  
 POTCAR:    PAW_PBE H 15Jun2001                   
 POTCAR:    PAW_PBE N 08Apr2002                   
 POTCAR:    PAW_PBE O 08Apr2002                   
 POTCAR:    PAW_PBE C 08Apr2002                   
   VRHFIN =C: s2p2                                                              
   LEXCH  = PE                                                                  
   EATOM  =   147.1560 eV,   10.8157 Ry                                         
                                                                                
   TITEL  = PAW_PBE C 08Apr2002                                                 
   LULTRA =        F    use ultrasoft PP ?                                      
   IUNSCR =        1    unscreen: 0-lin 1-nonlin 2-no                           
   RPACOR =    1.200    partial core radius                                     
   POMASS =   12.011; ZVAL   =    4.000    mass and valenz                      
   RCORE  =    1.500    outmost cutoff radius                                   
   RWIGS  =    1.630; RWIGS  =    0.863    wigner-seitz radius (au A)           
   ENMAX  =  400.000; ENMIN  =  300.000 eV                                      
   ICORE  =        2    local potential                                         
   LCOR   =        T    correct aug charges                                     
   LPAW   =        T    paw PP                                                  
   EAUG   =  644.873                                                            
   DEXC   =    0.000                                                            
   RMAX   =    1.529    core radius for proj-oper                               
   RAUG   =    1.300    factor for augmentation sphere                          
   RDEP   =    1.501    radius for radial grids                                 
   RDEPT  =    1.300    core radius for aug-charge                              
                                                                                
   Atomic configuration                                                         
    4 entries                                                                   
     n  l   j            E        occ.                                          
     1  0  0.50      -273.3789   2.0000                                         
     2  0  0.50       -13.7508   2.0000                                         
     2  1  0.50        -5.2854   2.0000                                         
     3  2  1.50        -5.4423   0.0000                                         
   Description                                                                  
     l       E           TYP  RCUT    TYP  RCUT                                 
     0    -13.7508458     23  1.200                                             
     0     -8.2022199     23  1.200                                             
     1     -5.2854383     23  1.500                                             
     1     34.0145650     23  1.500                                             
     2     -5.4423304      7  1.500                                             
  local pseudopotential read in
  partial core-charges read in
  partial kinetic energy density read in
  atomic valenz-charges read in
  non local Contribution for L=           0  read in
    real space projection operators read in
  non local Contribution for L=           0  read in
    real space projection operators read in
  non local Contribution for L=           1  read in
    real space projection operators read in
  non local Contribution for L=           1  read in
    real space projection operators read in
    PAW grid and wavefunctions read in
 
   number of l-projection  operators is LMAX  =           4
   number of lm-projection operators is LMMAX =           8
 
 POTCAR:    PAW_PBE Fe 06Sep2000                  
   VRHFIN =Fe:  d7 s1                                                           
   LEXCH  = PE                                                                  
   EATOM  =   594.3153 eV,   43.6809 Ry                                         
                                                                                
   TITEL  = PAW_PBE Fe 06Sep2000                                                
   LULTRA =        F    use ultrasoft PP ?                                      
   IUNSCR =        1    unscreen: 0-lin 1-nonlin 2-no                           
   RPACOR =    2.000    partial core radius                                     
   POMASS =   55.847; ZVAL   =    8.000    mass and valenz                      
   RCORE  =    2.300    outmost cutoff radius                                   
   RWIGS  =    2.460; RWIGS  =    1.302    wigner-seitz radius (au A)           
   ENMAX  =  267.882; ENMIN  =  200.911 eV                                      
   RCLOC  =    1.701    cutoff for local pot                                    
   LCOR   =        T    correct aug charges                                     
   LPAW   =        T    paw PP                                                  
   EAUG   =  511.368                                                            
   DEXC   =    0.000                                                            
   RMAX   =    2.356    core radius for proj-oper                               
   RAUG   =    1.300    factor for augmentation sphere                          
   RDEP   =    2.442    radius for radial grids                                 
   RDEPT  =    1.890    core radius for aug-charge                              
                                                                                
   Atomic configuration                                                         
    9 entries                                                                   
     n  l   j            E        occ.                                          
     1  0  0.50     -6993.8440   2.0000                                         
     2  0  0.50      -814.6047   2.0000                                         
     2  1  1.50      -693.3689   6.0000                                         
     3  0  0.50       -89.4732   2.0000                                         
     3  1  1.50       -55.6373   6.0000                                         
     3  2  2.50        -3.8151   7.0000                                         
     4  0  0.50        -4.2551   1.0000                                         
     4  1  1.50        -3.4015   0.0000                                         
     4  3  2.50        -1.3606   0.0000                                         
   Description                                                                  
     l       E           TYP  RCUT    TYP  RCUT                                 
     2     -3.8151135     23  2.300                                             
     2     -5.1756961     23  2.300                                             
     0     -4.2550963     23  2.300                                             
     0      7.2035603     23  2.300                                             
     1     -2.7211652     23  2.300                                             
     1     18.4316424     23  2.300                                             
  local pseudopotential read in
  partial core-charges read in
  partial kinetic energy density read in
  atomic valenz-charges read in
  non local Contribution for L=           2  read in
    real space projection operators read in
  non local Contribution for L=           2  read in
    real space projection operators read in
  non local Contribution for L=           0  read in
    real space projection operators read in
  non local Contribution for L=           0  read in
    real space projection operators read in
  non local Contribution for L=           1  read in
    real space projection operators read in
  non local Contribution for L=           1  read in
    real space projection operators read in
    PAW grid and wavefunctions read in
 
   number of l-projection  operators is LMAX  =           6
   number of lm-projection operators is LMMAX =          18
 
 POTCAR:    PAW_PBE H 15Jun2001                   
   VRHFIN =H: ultrasoft test                                                    
   LEXCH  = PE                                                                  
   EATOM  =    12.4884 eV,    0.9179 Ry                                         
                                                                                
   TITEL  = PAW_PBE H 15Jun2001                                                 
   LULTRA =        F    use ultrasoft PP ?                                      
   IUNSCR =        0    unscreen: 0-lin 1-nonlin 2-no                           
   RPACOR =    0.000    partial core radius                                     
   POMASS =    1.000; ZVAL   =    1.000    mass and valenz                      
   RCORE  =    1.100    outmost cutoff radius                                   
   RWIGS  =    0.700; RWIGS  =    0.370    wigner-seitz radius (au A)           
   ENMAX  =  250.000; ENMIN  =  200.000 eV                                      
   RCLOC  =    0.701    cutoff for local pot                                    
   LCOR   =        T    correct aug charges                                     
   LPAW   =        T    paw PP                                                  
   EAUG   =  400.000                                                            
   RMAX   =    1.123    core radius for proj-oper                               
   RAUG   =    1.200    factor for augmentation sphere                          
   RDEP   =    1.112    radius for radial grids                                 
   RDEPT  =    0.926    core radius for aug-charge                              
                                                                                
   Atomic configuration                                                         
    2 entries                                                                   
     n  l   j            E        occ.                                          
     1  0  0.50        -6.4927   1.0000                                         
     2  1  0.50        -3.4015   0.0000                                         
   Description                                                                  
     l       E           TYP  RCUT    TYP  RCUT                                 
     0     -6.4927494     23  1.100                                             
     0      6.8029130     23  1.100                                             
     1     -4.0817478     23  1.100                                             
  local pseudopotential read in
  atomic valenz-charges read in
  non local Contribution for L=           0  read in
    real space projection operators read in
  non local Contribution for L=           0  read in
    real space projection operators read in
  non local Contribution for L=           1  read in
    real space projection operators read in
    PAW grid and wavefunctions read in
 
   number of l-projection  operators is LMAX  =           3
   number of lm-projection operators is LMMAX =           5
 
 POTCAR:    PAW_PBE N 08Apr2002                   
   VRHFIN =N: s2p3                                                              
   LEXCH  = PE                                                                  
   EATOM  =   264.5486 eV,   19.4438 Ry                                         
                                                                                
   TITEL  = PAW_PBE N 08Apr2002                                                 
   LULTRA =        F    use ultrasoft PP ?                                      
   IUNSCR =        1    unscreen: 0-lin 1-nonlin 2-no                           
   RPACOR =    1.200    partial core radius                                     
   POMASS =   14.001; ZVAL   =    5.000    mass and valenz                      
   RCORE  =    1.500    outmost cutoff radius                                   
   RWIGS  =    1.400; RWIGS  =    0.741    wigner-seitz radius (au A)           
   ENMAX  =  400.000; ENMIN  =  300.000 eV                                      
   ICORE  =        2    local potential                                         
   LCOR   =        T    correct aug charges                                     
   LPAW   =        T    paw PP                                                  
   EAUG   =  627.112                                                            
   DEXC   =    0.000                                                            
   RMAX   =    1.529    core radius for proj-oper                               
   RAUG   =    1.300    factor for augmentation sphere                          
   RDEP   =    1.514    radius for radial grids                                 
   RDEPT  =    1.338    core radius for aug-charge                              
                                                                                
   Atomic configuration                                                         
    4 entries                                                                   
     n  l   j            E        occ.                                          
     1  0  0.50      -384.7179   2.0000                                         
     2  0  0.50       -18.5828   2.0000                                         
     2  1  0.50        -7.0898   3.0000                                         
     3  2  1.50        -6.8029   0.0000                                         
   Description                                                                  
     l       E           TYP  RCUT    TYP  RCUT                                 
     0    -18.5828119     23  1.200                                             
     0    -13.5018863     23  1.200                                             
     1     -7.0897853     23  1.500                                             
     1      9.5240782     23  1.500                                             
     2     -6.8029130      7  1.500                                             
  local pseudopotential read in
  partial core-charges read in
  partial kinetic energy density read in
  atomic valenz-charges read in
  non local Contribution for L=           0  read in
    real space projection operators read in
  non local Contribution for L=           0  read in
    real space projection operators read in
  non local Contribution for L=           1  read in
    real space projection operators read in
  non local Contribution for L=           1  read in
    real space projection operators read in
    PAW grid and wavefunctions read in
 
   number of l-projection  operators is LMAX  =           4
   number of lm-projection operators is LMMAX =           8
 
 POTCAR:    PAW_PBE O 08Apr2002                   
   VRHFIN =O: s2p4                                                              
   LEXCH  = PE                                                                  
   EATOM  =   432.3788 eV,   31.7789 Ry                                         
                                                                                
   TITEL  = PAW_PBE O 08Apr2002                                                 
   LULTRA =        F    use ultrasoft PP ?                                      
   IUNSCR =        1    unscreen: 0-lin 1-nonlin 2-no                           
   RPACOR =    1.200    partial core radius                                     
   POMASS =   16.000; ZVAL   =    6.000    mass and valenz                      
   RCORE  =    1.520    outmost cutoff radius                                   
   RWIGS  =    1.550; RWIGS  =    0.820    wigner-seitz radius (au A)           
   ENMAX  =  400.000; ENMIN  =  300.000 eV                                      
   ICORE  =        2    local potential                                         
   LCOR   =        T    correct aug charges                                     
   LPAW   =        T    paw PP                                                  
   EAUG   =  605.392                                                            
   DEXC   =    0.000                                                            
   RMAX   =    1.553    core radius for proj-oper                               
   RAUG   =    1.300    factor for augmentation sphere                          
   RDEP   =    1.550    radius for radial grids                                 
   RDEPT  =    1.329    core radius for aug-charge                              
                                                                                
   Atomic configuration                                                         
    4 entries                                                                   
     n  l   j            E        occ.                                          
     1  0  0.50      -514.6923   2.0000                                         
     2  0  0.50       -23.9615   2.0000                                         
     2  1  0.50        -9.0305   4.0000                                         
     3  2  1.50        -9.5241   0.0000                                         
   Description                                                                  
     l       E           TYP  RCUT    TYP  RCUT                                 
     0    -23.9615318     23  1.200                                             
     0     -9.5240782     23  1.200                                             
     1     -9.0304911     23  1.520                                             
     1      8.1634956     23  1.520                                             
     2     -9.5240782      7  1.500                                             
  local pseudopotential read in
  partial core-charges read in
  partial kinetic energy density read in
  kinetic energy density of atom read in
  atomic valenz-charges read in
  non local Contribution for L=           0  read in
    real space projection operators read in
  non local Contribution for L=           0  read in
    real space projection operators read in
  non local Contribution for L=           1  read in
    real space projection operators read in
  non local Contribution for L=           1  read in
    real space projection operators read in
    PAW grid and wavefunctions read in
 
   number of l-projection  operators is LMAX  =           4
   number of lm-projection operators is LMMAX =           8
 
 Optimization of the real space projectors (new method)

 maximal supplied QI-value         = 25.13
 optimisation between [QCUT,QGAM] = [ 12.32, 24.88] = [ 42.47,173.37] Ry 
 Optimized for a Real-space Cutoff    1.06 Angstroem

   l    n(q)    QCUT    max X(q) W(low)/X(q) W(high)/X(q)  e(spline) 
   0      8    12.315   115.676    0.34E-03    0.18E-03    0.23E-06
   0      8    12.315    87.132    0.34E-03    0.18E-03    0.22E-06
   1      7    12.315     4.429    0.45E-03    0.12E-03    0.18E-06
   1      7    12.315     2.733    0.35E-03    0.97E-04    0.15E-06
 Optimization of the real space projectors (new method)

 maximal supplied QI-value         = 16.25
 optimisation between [QCUT,QGAM] = [ 12.51, 25.03] = [ 43.85,175.40] Ry 
 Optimized for a Real-space Cutoff    1.35 Angstroem

   l    n(q)    QCUT    max X(q) W(low)/X(q) W(high)/X(q)  e(spline) 
   2      9    12.514    80.901    0.12E-03    0.34E-03    0.58E-06
   2      9    12.514    75.754    0.12E-03    0.34E-03    0.59E-06
   0     10    12.514    58.752    0.17E-03    0.81E-04    0.93E-07
   0     10    12.514    30.679    0.15E-03    0.74E-04    0.88E-07
   1     10    12.514    17.977    0.11E-03    0.79E-04    0.24E-06
   1     10    12.514    13.559    0.97E-04    0.61E-04    0.20E-06
 Optimization of the real space projectors (new method)

 maximal supplied QI-value         = 34.20
 optimisation between [QCUT,QGAM] = [ 12.31, 24.97] = [ 42.46,174.58] Ry 
 Optimized for a Real-space Cutoff    1.00 Angstroem

   l    n(q)    QCUT    max X(q) W(low)/X(q) W(high)/X(q)  e(spline) 
   0      7    12.313    19.460    0.14E-03    0.42E-03    0.16E-06
   0      7    12.313    12.209    0.12E-03    0.40E-03    0.16E-06
   1      7    12.313     4.655    0.33E-03    0.59E-03    0.89E-07
 Optimization of the real space projectors (new method)

 maximal supplied QI-value         = 25.13
 optimisation between [QCUT,QGAM] = [ 12.32, 24.88] = [ 42.47,173.37] Ry 
 Optimized for a Real-space Cutoff    1.20 Angstroem

   l    n(q)    QCUT    max X(q) W(low)/X(q) W(high)/X(q)  e(spline) 
   0      9    12.315    79.467    0.14E-03    0.22E-04    0.37E-06
   0      9    12.315    66.151    0.14E-03    0.23E-04    0.36E-06
   1      8    12.315    22.077    0.30E-03    0.54E-03    0.45E-06
   1      8    12.315    15.894    0.30E-03    0.55E-03    0.45E-06
 Optimization of the real space projectors (new method)

 maximal supplied QI-value         = 24.76
 optimisation between [QCUT,QGAM] = [ 12.38, 25.00] = [ 42.90,175.06] Ry 
 Optimized for a Real-space Cutoff    1.13 Angstroem

   l    n(q)    QCUT    max X(q) W(low)/X(q) W(high)/X(q)  e(spline) 
   0      8    12.378    20.381    0.16E-03    0.54E-05    0.27E-06
   0      8    12.378    15.268    0.17E-03    0.61E-05    0.29E-06
   1      8    12.378     5.964    0.38E-03    0.23E-03    0.28E-06
   1      8    12.378     5.382    0.33E-03    0.20E-03    0.25E-06
  PAW_PBE C 08Apr2002                   :
 energy of atom  1       EATOM= -147.1560
 kinetic energy error for atom=    0.0057 (will be added to EATOM!!)
  PAW_PBE Fe 06Sep2000                  :
 energy of atom  2       EATOM= -594.3153
 kinetic energy error for atom=    0.0017 (will be added to EATOM!!)
  PAW_PBE H 15Jun2001                   :
 energy of atom  3       EATOM=  -12.4884
 kinetic energy error for atom=    0.0004 (will be added to EATOM!!)
  PAW_PBE N 08Apr2002                   :
 energy of atom  4       EATOM= -264.5486
 kinetic energy error for atom=    0.0103 (will be added to EATOM!!)
  PAW_PBE O 08Apr2002                   :
 energy of atom  5       EATOM= -432.3788
 kinetic energy error for atom=    0.0168 (will be added to EATOM!!)
 
 
 POSCAR: FeH_exp1
  positions in direct lattice
  velocities in cartesian coordinates
 exchange correlation table for  LEXCH =        8
   RHO(1)=    0.500       N(1)  =     2000
   RHO(2)=  100.500       N(2)  =     4000
 


--------------------------------------------------------------------------------------------------------


 ion  position               nearest neighbor table
   1  0.873  0.966  0.105- 107 1.09 117 1.35  65 1.40
   2  0.933  0.980  0.437- 112 1.09 118 1.35  65 1.40
   3  0.870  0.818  0.896- 116 1.09 119 1.35  66 1.40
   4  0.627  0.466  0.612- 110 1.09 120 1.35  67 1.40
   5  0.572  0.303  0.072- 111 1.09 121 1.35  68 1.40
   6  0.067  0.801  0.066- 115 1.09 122 1.35  69 1.40
   7  0.567  0.480  0.944- 101 1.09 123 1.35  67 1.40
   8  0.631  0.318  0.403- 113 1.09 124 1.35  68 1.40
   9  0.428  0.478  0.445- 114 1.09 125 1.35  70 1.40
  10  0.127  0.815  0.399- 104 1.09 126 1.35  69 1.40
  11  0.072  0.978  0.939- 105 1.09 127 1.35  71 1.40
  12  0.432  0.301  0.573- 102 1.09 128 1.35  72 1.40
  13  0.928  0.803  0.564- 108 1.09 129 1.35  66 1.40
  14  0.131  0.963  0.607- 109 1.09 130 1.35  71 1.40
  15  0.373  0.315  0.905- 106 1.09 131 1.35  72 1.40
  16  0.370  0.463  0.113- 103 1.09 132 1.35  70 1.40
  17  0.795  0.041  0.455- 141 1.23 133 1.41  33 1.48
  18  0.859  0.074  0.067- 142 1.23 133 1.42  34 1.48
  19  0.853  0.710  0.939- 143 1.23 134 1.42  35 1.48
  20  0.641  0.574  0.571- 144 1.23 135 1.42  36 1.48
  21  0.648  0.210  0.444- 145 1.23 136 1.42  37 1.48
  22  0.205  0.740  0.052- 146 1.23 137 1.41  38 1.48
  23  0.705  0.541  0.959- 147 1.23 135 1.41  39 1.48
  24  0.711  0.243  0.055- 148 1.23 136 1.41  40 1.48
  25  0.289  0.538  0.459- 149 1.23 138 1.41  41 1.48
  26  0.141  0.707  0.440- 150 1.23 137 1.42  42 1.48
  27  0.147  0.071  0.567- 151 1.23 139 1.42  43 1.48
  28  0.358  0.207  0.944- 152 1.23 140 1.42  44 1.48
  29  0.789  0.743  0.550- 153 1.23 134 1.41  45 1.48
  30  0.211  0.038  0.955- 154 1.23 139 1.41  46 1.48
  31  0.294  0.240  0.555- 155 1.23 140 1.41  47 1.48
  32  0.353  0.571  0.070- 156 1.23 138 1.42  48 1.48
  33  0.757  0.084  0.447-  49 1.39  73 1.42  17 1.48
  34  0.821  0.117  0.071-  50 1.39  73 1.42  18 1.48
  35  0.815  0.667  0.938-  51 1.39  74 1.42  19 1.48
  36  0.678  0.617  0.572-  52 1.39  75 1.42  20 1.48
  37  0.685  0.167  0.441-  53 1.39  76 1.42  21 1.48
  38  0.243  0.696  0.062-  54 1.39  77 1.42  22 1.48
  39  0.743  0.585  0.949-  55 1.39  75 1.42  23 1.48
  40  0.749  0.200  0.065-  56 1.39  76 1.42  24 1.48
  41  0.251  0.581  0.448-  57 1.39  78 1.42  25 1.48
  42  0.179  0.664  0.438-  58 1.39  77 1.42  26 1.48
  43  0.185  0.114  0.570-  59 1.39  79 1.42  27 1.48
  44  0.321  0.164  0.940-  60 1.39  80 1.42  28 1.48
  45  0.751  0.699  0.562-  61 1.39  74 1.42  29 1.48
  46  0.249  0.081  0.946-  62 1.39  79 1.42  30 1.48
  47  0.257  0.197  0.564-  63 1.39  80 1.42  31 1.48
  48  0.315  0.614  0.072-  64 1.39  78 1.42  32 1.48
  49  0.707  0.089  0.626-  88 1.09  33 1.39  53 1.40
  50  0.835  0.154  0.888-  99 1.09  34 1.39  56 1.40
  51  0.829  0.630  0.122-  93 1.09  35 1.39  55 1.40
  52  0.664  0.654  0.389-  90 1.09  36 1.39  61 1.40
  53  0.672  0.130  0.623-  98 1.09  37 1.39  49 1.40
  54  0.293  0.692  0.884-  96 1.09  38 1.39  64 1.40
  55  0.793  0.589  0.127-  86 1.09  39 1.39  51 1.40
  56  0.799  0.195  0.885-  87 1.09  40 1.39  50 1.40
  57  0.201  0.586  0.626-  95 1.09  41 1.39  58 1.40
  58  0.165  0.627  0.621-  91 1.09  42 1.39  57 1.40
  59  0.171  0.151  0.388-  92 1.09  43 1.39  63 1.40
  60  0.335  0.127  0.122-  85 1.09  44 1.39  62 1.40
  61  0.700  0.695  0.383-  89 1.09  45 1.39  52 1.40
  62  0.299  0.086  0.125- 100 1.09  46 1.39  60 1.40
  63  0.207  0.192  0.385-  94 1.09  47 1.39  59 1.40
  64  0.329  0.651  0.889-  97 1.09  48 1.39  54 1.40
  65  0.881  0.997  0.269-   2 1.40   1 1.40 133 1.42
  66  0.876  0.786  0.733-  13 1.40   3 1.40 134 1.42
  67  0.619  0.497  0.775-   7 1.40   4 1.40 135 1.42
  68  0.624  0.286  0.240-   5 1.40   8 1.40 136 1.42
  69  0.119  0.784  0.236-   6 1.40  10 1.40 137 1.42
  70  0.376  0.495  0.276-   9 1.40  16 1.40 138 1.42
  71  0.124  0.994  0.771-  11 1.40  14 1.40 139 1.42
  72  0.380  0.284  0.741-  12 1.40  15 1.40 140 1.42
  73  0.772  0.121  0.257-  33 1.42  34 1.42  76 1.43
  74  0.765  0.663  0.753-  45 1.42  35 1.42  75 1.43
  75  0.728  0.621  0.758-  39 1.42  36 1.42  74 1.43
  76  0.735  0.163  0.254-  40 1.42  37 1.42  73 1.43
  77  0.229  0.660  0.252-  38 1.42  42 1.42  78 1.43
  78  0.265  0.618  0.258-  41 1.42  48 1.42  77 1.43
  79  0.235  0.118  0.756-  46 1.42  43 1.42  80 1.43
  80  0.271  0.160  0.753-  47 1.42  44 1.42  79 1.43
  81  0.977  0.891  0.001- 119 2.00 117 2.00 127 2.02 122 2.02  82 2.87  82 2.87
  82  0.023  0.890  0.502- 126 2.00 130 2.00 118 2.02 129 2.02  81 2.87  81 2.87
  83  0.523  0.390  0.509- 120 2.00 124 2.00 128 2.02 125 2.02  84 2.87  84 2.87
  84  0.477  0.390  0.009- 132 2.00 131 2.00 121 2.02 123 2.02  83 2.87  83 2.87
  85  0.374  0.131  0.263-  60 1.09
  86  0.803  0.560  0.271-  55 1.09
  87  0.809  0.224  0.743-  56 1.09
  88  0.697  0.060  0.769-  49 1.09
  89  0.690  0.724  0.240-  61 1.09
  90  0.625  0.650  0.249-  52 1.09
  91  0.126  0.631  0.761-  58 1.09
  92  0.132  0.147  0.247-  59 1.09
  93  0.868  0.634  0.262-  51 1.09
  94  0.196  0.221  0.242-  63 1.09
  95  0.191  0.557  0.769-  57 1.09
  96  0.303  0.721  0.741-  54 1.09
  97  0.368  0.647  0.749-  64 1.09
  98  0.633  0.134  0.764-  53 1.09
  99  0.874  0.150  0.748-  50 1.09
 100  0.310  0.057  0.268-  62 1.09
 101  0.546  0.494  0.099-   7 1.09
 102  0.454  0.287  0.417-  12 1.09
 103  0.336  0.464  0.952-  16 1.09
 104  0.160  0.814  0.561-  10 1.09
 105  0.051  0.993  0.094-  11 1.09
 106  0.339  0.314  0.066-  15 1.09
 107  0.840  0.967  0.944-   1 1.09
 108  0.949  0.788  0.409-  13 1.09
 109  0.164  0.964  0.447-  14 1.09
 110  0.660  0.467  0.451-   4 1.09
 111  0.551  0.288  0.917-   5 1.09
 112  0.954  0.994  0.593-   2 1.09
 113  0.664  0.317  0.564-   8 1.09
 114  0.449  0.493  0.600-   9 1.09
 115  0.046  0.787  0.911-   6 1.09
 116  0.836  0.817  0.057-   3 1.09
 117  0.918  0.931  0.174-   1 1.35 118 1.37  81 2.00
 118  0.954  0.940  0.377-   2 1.35 117 1.37  82 2.02
 119  0.915  0.852  0.827-   3 1.35 129 1.37  81 2.00
 120  0.582  0.431  0.682-   4 1.35 123 1.37  83 2.00
 121  0.549  0.342  0.131-   5 1.35 124 1.37  84 2.02
 122  0.046  0.841  0.126-   6 1.35 126 1.37  81 2.02
 123  0.546  0.440  0.885-   7 1.35 120 1.37  84 2.02
 124  0.585  0.351  0.334-   8 1.35 121 1.37  83 2.00
 125  0.451  0.438  0.386-   9 1.35 132 1.37  83 2.02
 126  0.082  0.850  0.329-  10 1.35 122 1.37  82 2.00
 127  0.049  0.939  0.879-  11 1.35 130 1.37  81 2.02
 128  0.454  0.341  0.632-  12 1.35 131 1.37  83 2.02
 129  0.951  0.842  0.623-  13 1.35 119 1.37  82 2.02
 130  0.085  0.929  0.677-  14 1.35 127 1.37  82 2.00
 131  0.418  0.349  0.836-  15 1.35 128 1.37  84 2.00
 132  0.415  0.429  0.183-  16 1.35 125 1.37  84 2.00
 133  0.844  0.039  0.264-  17 1.41  18 1.42  65 1.42
 134  0.838  0.745  0.740-  29 1.41  19 1.42  66 1.42
 135  0.656  0.539  0.769-  23 1.41  20 1.42  67 1.42
 136  0.662  0.245  0.246-  24 1.41  21 1.42  68 1.42
 137  0.156  0.742  0.242-  22 1.41  26 1.42  69 1.42
 138  0.338  0.536  0.269-  25 1.41  32 1.42  70 1.42
 139  0.162  0.036  0.764-  30 1.41  27 1.42  71 1.42
 140  0.343  0.242  0.746-  31 1.41  28 1.42  72 1.42
 141  0.785  0.008  0.616-  17 1.23
 142  0.900  0.068  0.903-  18 1.23
 143  0.895  0.716  0.102-  19 1.23
 144  0.599  0.568  0.409-  20 1.23
 145  0.606  0.215  0.607-  21 1.23
 146  0.215  0.772  0.889-  22 1.23
 147  0.715  0.509  0.122-  23 1.23
 148  0.721  0.276  0.893-  24 1.23
 149  0.279  0.505  0.622-  25 1.23
 150  0.099  0.713  0.603-  26 1.23
 151  0.106  0.065  0.404-  27 1.23
 152  0.400  0.213  0.107-  28 1.23
 153  0.779  0.775  0.386-  29 1.23
 154  0.221  0.005  0.117-  30 1.23
 155  0.284  0.273  0.394-  31 1.23
 156  0.395  0.565  0.908-  32 1.23
 

IMPORTANT INFORMATION: All symmetrisations will be switched off!
NOSYMM: (Re-)initialisation of all symmetry stuff for point group C_1.


----------------------------------------------------------------------------------------

                                     Primitive cell                                     

  volume of cell :    3096.8993

  direct lattice vectors                    reciprocal lattice vectors
    19.206286642 -0.000328551 -0.007813216     0.052066296  0.000002435  0.000027089
    -0.002555793 29.764584603  2.237354049    -0.000000524  0.033800644 -0.002709508
    -0.002856076  0.436892141  5.450153646     0.000074856 -0.013875570  0.184593391

  length of vectors
    19.206288234 29.848555346  5.467637302     0.052066303  0.033909069  0.185114173

  position of ions in fractional coordinates (direct lattice)
     0.873218265  0.965772140  0.104916853
     0.932603611  0.979902611  0.437305255
     0.869643148  0.817882799  0.896117629
     0.626589685  0.465705209  0.611750401
     0.571925779  0.302553911  0.071643885
     0.067493041  0.800930404  0.066424358
     0.567230404  0.479835803  0.943831332
     0.630627689  0.317672652  0.403361137
     0.428339538  0.478114475  0.445057576
     0.126635169  0.815061898  0.399350630
     0.072132171  0.978070973  0.938994295
     0.432247870  0.300892561  0.572709619
     0.928105707  0.802768211  0.564239120
     0.130753159  0.962939943  0.607487594
     0.372971123  0.315101947  0.904820937
     0.369706235  0.462944252  0.113240876
     0.794942087  0.040842713  0.454943145
     0.858615002  0.073921962  0.066864315
     0.852786495  0.710082352  0.939193822
     0.640591087  0.573874380  0.571006280
     0.647709788  0.209781832  0.443884059
     0.205060520  0.739708092  0.051820681
     0.704692585  0.541224153  0.959290517
     0.711206006  0.242862396  0.055374333
     0.289281271  0.538098392  0.459060338
     0.141151033  0.706975672  0.439985525
     0.147493759  0.070895761  0.566877439
     0.358293010  0.206979712  0.943699937
     0.789113801  0.742696437  0.549899062
     0.211325861  0.037857359  0.955132888
     0.294432106  0.239950432  0.555498759
     0.352970177  0.570838112  0.070398676
     0.757260961  0.084227321  0.446678420
     0.821344547  0.117197860  0.070574642
     0.815053190  0.666897064  0.938297674
     0.678081073  0.617158109  0.572385536
     0.685265226  0.166597956  0.440837369
     0.243018461  0.696371119  0.062308100
     0.742587477  0.584592535  0.948678626
     0.749292051  0.199581160  0.064704379
     0.250986922  0.581344691  0.447789636
     0.178608614  0.663698728  0.438170610
     0.184972507  0.114107899  0.569876382
     0.321106001  0.163656179  0.940038041
     0.750718944  0.699466166  0.561680594
     0.249326986  0.081169725  0.945824223
     0.256755537  0.196549919  0.564034562
     0.315350226  0.614042561  0.071832552
     0.707407396  0.088716468  0.626236862
     0.835081245  0.154133990  0.888318125
     0.828806393  0.630208835  0.122116456
     0.664279922  0.653896818  0.388864980
     0.671581839  0.129691615  0.623303441
     0.293149122  0.691778834  0.883866068
     0.792746518  0.589257025  0.127242380
     0.799208539  0.195101529  0.885341356
     0.200766783  0.585934050  0.625933455
     0.164750069  0.626899425  0.621117571
     0.171061591  0.151010501  0.387554444
     0.335044013  0.126734090  0.122260603
     0.700436233  0.694830503  0.383491804
     0.299337183  0.085700859  0.125118617
     0.206784911  0.192031902  0.384590626
     0.329145639  0.650813522  0.888655665
     0.880784122  0.997138603  0.268718680
     0.875977420  0.786319575  0.733019530
     0.618823688  0.497169177  0.774841736
     0.624305397  0.286169232  0.239862427
     0.119075209  0.783637773  0.235925509
     0.376152551  0.494543897  0.276123025
     0.124409068  0.994477049  0.770743296
     0.380452156  0.283709627  0.741216660
     0.771602270  0.121055682  0.257387247
     0.764983966  0.662866806  0.752533016
     0.728162235  0.621204598  0.758127480
     0.735049122  0.162759607  0.254163216
     0.228614713  0.659699212  0.252431264
     0.265323391  0.618013092  0.257531458
     0.234858589  0.117981525  0.756476680
     0.271285648  0.159731287  0.753266712
     0.977134397  0.890647807  0.001323440
     0.023014002  0.890288026  0.501697642
     0.522972872  0.390416851  0.508813619
     0.477081107  0.390078584  0.008951694
     0.373815025  0.130736392  0.262951488
     0.802980304  0.560378829  0.270673509
     0.809339128  0.224122405  0.742718167
     0.697214875  0.059677835  0.768667932
     0.690245719  0.723692028  0.239861504
     0.625278134  0.649812066  0.249072938
     0.125797065  0.630953934  0.760875866
     0.132238467  0.147004247  0.247041292
     0.867785376  0.634333683  0.261941050
     0.196442621  0.221074744  0.242280444
     0.190519803  0.557016459  0.769061255
     0.303380762  0.720706924  0.740753610
     0.368087248  0.646742211  0.748906784
     0.632836160  0.133670461  0.763864665
     0.873788925  0.150165311  0.747594332
     0.309658613  0.056676647  0.267615386
     0.545648073  0.493918015  0.098979178
     0.453669752  0.286811399  0.417318085
     0.336286057  0.463669824  0.952179857
     0.160053714  0.813802478  0.560762448
     0.051218438  0.992506483  0.093990725
     0.339438095  0.313896093  0.065699715
     0.839657609  0.967011712  0.943885901
     0.948923964  0.788316633  0.409135540
     0.164210115  0.963668317  0.446737274
     0.660069963  0.466981502  0.450693647
     0.550997815  0.288121549  0.916526692
     0.954126140  0.993958148  0.592760559
     0.664115930  0.316951498  0.564228173
     0.449271603  0.492603602  0.600003349
     0.046077531  0.786875530  0.910797766
     0.836319831  0.817134301  0.057215159
     0.918041899  0.931420319  0.173973043
     0.954474062  0.940076611  0.377439389
     0.915464574  0.851623968  0.826549718
     0.582100389  0.431205271  0.681549446
     0.548583652  0.342058600  0.131328582
     0.045755741  0.840844894  0.125525901
     0.545689573  0.439858597  0.884841892
     0.584599350  0.351332156  0.334446562
     0.451468904  0.438487655  0.386319948
     0.082052500  0.849502199  0.329270099
     0.048834787  0.938539348  0.879457857
     0.454180977  0.340727880  0.632461288
     0.951338208  0.842348689  0.623379317
     0.084807910  0.929247138  0.676529179
     0.417819216  0.349427251  0.835759417
     0.415493516  0.429182545  0.183172169
     0.843813588  0.038544386  0.264012033
     0.838174811  0.745172030  0.740304773
     0.655596823  0.538686963  0.769033889
     0.662231919  0.245093738  0.246082809
     0.156001120  0.742182105  0.241959466
     0.338361177  0.535691673  0.268900921
     0.162246309  0.035589354  0.764495816
     0.343430139  0.242309016  0.746283717
     0.784518630  0.007949197  0.616217867
     0.900194085  0.068261288  0.903419911
     0.894713759  0.715859967  0.101636960
     0.598686880  0.568063757  0.408566419
     0.605999246  0.215389277  0.607044233
     0.215448793  0.772408934  0.889361094
     0.715181761  0.508546204  0.121876535
     0.721262860  0.275661387  0.893201476
     0.279291542  0.505459613  0.622257528
     0.099395398  0.712755388  0.602666137
     0.105654351  0.065271888  0.403881750
     0.399922024  0.212670210  0.107203144
     0.779179682  0.775264678  0.386140682
     0.221488919  0.005068662  0.117318200
     0.283931358  0.272792901  0.393944555
     0.394772871  0.565093838  0.907790968

  ion indices of the primitive-cell ions
   primitive index   ion index
                 1           1
                 2           2
                 3           3
                 4           4
                 5           5
                 6           6
                 7           7
                 8           8
                 9           9
                10          10
                11          11
                12          12
                13          13
                14          14
                15          15
                16          16
                17          17
                18          18
                19          19
                20          20
                21          21
                22          22
                23          23
                24          24
                25          25
                26          26
                27          27
                28          28
                29          29
                30          30
                31          31
                32          32
                33          33
                34          34
                35          35
                36          36
                37          37
                38          38
                39          39
                40          40
                41          41
                42          42
                43          43
                44          44
                45          45
                46          46
                47          47
                48          48
                49          49
                50          50
                51          51
                52          52
                53          53
                54          54
                55          55
                56          56
                57          57
                58          58
                59          59
                60          60
                61          61
                62          62
                63          63
                64          64
                65          65
                66          66
                67          67
                68          68
                69          69
                70          70
                71          71
                72          72
                73          73
                74          74
                75          75
                76          76
                77          77
                78          78
                79          79
                80          80
                81          81
                82          82
                83          83
                84          84
                85          85
                86          86
                87          87
                88          88
                89          89
                90          90
                91          91
                92          92
                93          93
                94          94
                95          95
                96          96
                97          97
                98          98
                99          99
               100         100
               101         101
               102         102
               103         103
               104         104
               105         105
               106         106
               107         107
               108         108
               109         109
               110         110
               111         111
               112         112
               113         113
               114         114
               115         115
               116         116
               117         117
               118         118
               119         119
               120         120
               121         121
               122         122
               123         123
               124         124
               125         125
               126         126
               127         127
               128         128
               129         129
               130         130
               131         131
               132         132
               133         133
               134         134
               135         135
               136         136
               137         137
               138         138
               139         139
               140         140
               141         141
               142         142
               143         143
               144         144
               145         145
               146         146
               147         147
               148         148
               149         149
               150         150
               151         151
               152         152
               153         153
               154         154
               155         155
               156         156

----------------------------------------------------------------------------------------

 
 

Automatic generation of k-mesh.
 generate k-points for:    2    1    4
Space group operators:
 irot       det(A)        alpha          n_x          n_y          n_z        tau_x        tau_y        tau_z
    1     1.000000     0.000000     1.000000     0.000000     0.000000     0.000000     0.000000     0.000000
 
 Subroutine IBZKPT returns following result:
 ===========================================
 
 Found      6 irreducible k-points:
 
 Following reciprocal coordinates:
            Coordinates               Weight
  0.000000  0.000000  0.000000      1.000000
  0.500000  0.000000 -0.000000      1.000000
  0.000000  0.000000  0.250000      2.000000
  0.500000  0.000000  0.250000      2.000000
  0.000000  0.000000  0.500000      1.000000
  0.500000  0.000000  0.500000      1.000000
 
 Following cartesian coordinates:
            Coordinates               Weight
  0.000000  0.000000  0.000000      1.000000
  0.026033  0.000001  0.000014      1.000000
  0.000019 -0.003469  0.046148      2.000000
  0.026052 -0.003468  0.046162      2.000000
  0.000037 -0.006938  0.092297      1.000000
  0.026071 -0.006937  0.092310      1.000000
 


--------------------------------------------------------------------------------------------------------




 Dimension of arrays:
   k-points           NKPTS =      6   k-points in BZ     NKDIM =      6   number of bands    NBANDS=    384
   number of dos      NEDOS =    301   number of ions     NIONS =    156
   non local maximal  LDIM  =      6   non local SUM 2l+1 LMDIM =     18
   total plane-waves  NPLWV = 777600
   max r-space proj   IRMAX =   2614   max aug-charges    IRDMAX=   9143
   dimension x,y,z NGX =   120 NGY =  180 NGZ =   36
   dimension x,y,z NGXF=   240 NGYF=  360 NGZF=   72
   support grid    NGXF=   240 NGYF=  360 NGZF=   72
   ions per type =              80   4  32  24  16
   NGX,Y,Z   is equivalent  to a cutoff of  10.39, 10.03, 10.95 a.u.
   NGXF,Y,Z  is equivalent  to a cutoff of  20.77, 20.05, 21.89 a.u.

 SYSTEM =  flex_MOF                                
 POSCAR =  FeH_exp1                                

 Startparameter for this run:
   NWRITE =      2    write-flag & timer
   PREC   = normal    normal or accurate (medium, high low for compatibility)
   ISTART =      0    job   : 0-new  1-cont  2-samecut
   ICHARG =      2    charge: 1-file 2-atom 10-const
   ISPIN  =      2    spin polarized calculation?
   LNONCOLLINEAR =      F non collinear calculations
   LSORBIT =      F    spin-orbit coupling
   INIWAV =      1    electr: 0-lowe 1-rand  2-diag
   LASPH  =      F    aspherical Exc in radial PAW
   METAGGA=      F    non-selfconsistent MetaGGA calc.

 Electronic Relaxation 1
   ENCUT  =  600.0 eV  44.10 Ry    6.64 a.u.  38.36 59.61 10.92*2*pi/ulx,y,z
   ENINI  =  600.0     initial cutoff
   ENAUG  =  644.9 eV  augmentation charge cutoff
   NELM   =     80;   NELMIN=  3; NELMDL= -8     # of ELM steps 
   EDIFF  = 0.1E-05   stopping-criterion for ELM
   LREAL  =      T    real-space projection
   NLSPLINE    = F    spline interpolate recip. space projectors
   LCOMPAT=      F    compatible to vasp.4.4
   GGA_COMPAT  = T    GGA compatible to vasp.4.4-vasp.4.6
   LMAXPAW     = -100 max onsite density
   LMAXMIX     =    2 max onsite mixed and CHGCAR
   VOSKOWN=      0    Vosko Wilk Nusair interpolation
   ROPT   =   -0.00050  -0.00050  -0.00050  -0.00050
   ROPT   =   -0.00050
 Ionic relaxation
   EDIFFG = -.1E-01   stopping-criterion for IOM
   NSW    =   1000    number of steps for IOM
   NBLOCK =      1;   KBLOCK =   1000    inner block; outer block 
   IBRION =      2    ionic relax: 0-MD 1-quasi-New 2-CG
   NFREE  =      1    steps in history (QN), initial steepest desc. (CG)
   ISIF   =      4    stress and relaxation
   IWAVPR =     11    prediction:  0-non 1-charg 2-wave 3-comb
   ISYM   =      0    0-nonsym 1-usesym 2-fastsym
   LCORR  =      T    Harris-Foulkes like correction to forces

   POTIM  = 0.5000    time-step for ionic-motion
   TEIN   =    0.0    initial temperature
   TEBEG  =    0.0;   TEEND  =   0.0 temperature during run
   SMASS  =  -3.00    Nose mass-parameter (am)
   estimated Nose-frequenzy (Omega)   =  0.10E-29 period in steps = 0.13E+47 mass=  -0.843E-26a.u.
   SCALEE = 1.0000    scale energy and forces
   NPACO  =    256;   APACO  = 16.0  distance and # of slots for P.C.
   PSTRESS=    0.0 pullay stress

  Mass of Ions in am
   POMASS =  12.01 55.85  1.00 14.00 16.00
  Ionic Valenz
   ZVAL   =   4.00  8.00  1.00  5.00  6.00
  Atomic Wigner-Seitz radii
   RWIGS  =  -1.00 -1.00 -1.00 -1.00 -1.00
  virtual crystal weights 
   VCA    =   1.00  1.00  1.00  1.00  1.00
   NELECT =     600.0000    total number of electrons
   NUPDOWN=      -1.0000    fix difference up-down

 DOS related values:
   EMIN   =  10.00;   EMAX   =-10.00  energy-range for DOS
   EFERMI =   0.00
   ISMEAR =     0;   SIGMA  =   0.05  broadening in eV -4-tet -1-fermi 0-gaus

 Electronic relaxation 2 (details)
   IALGO  =     38    algorithm
   LDIAG  =      T    sub-space diagonalisation (order eigenvalues)
   LSUBROT=      F    optimize rotation matrix (better conditioning)
   TURBO    =      0    0=normal 1=particle mesh
   IRESTART =      0    0=no restart 2=restart with 2 vectors
   NREBOOT  =      0    no. of reboots
   NMIN     =      0    reboot dimension
   EREF     =   0.00    reference energy to select bands
   IMIX   =      4    mixing-type and parameters
     AMIX     =   0.40;   BMIX     =  1.00
     AMIX_MAG =   1.60;   BMIX_MAG =  1.00
     AMIN     =   0.10
     WC   =   100.;   INIMIX=   1;  MIXPRE=   1;  MAXMIX= -45

 Intra band minimization:
   WEIMIN = 0.0010     energy-eigenvalue tresh-hold
   EBREAK =  0.65E-09  absolut break condition
   DEPER  =   0.30     relativ break condition  

   TIME   =   0.40     timestep for ELM

  volume/ion in A,a.u.               =      19.85       133.97
  Fermi-wavevector in a.u.,A,eV,Ry     =   0.947290  1.790118 12.209298  0.897358
  Thomas-Fermi vector in A             =   2.075369
 
 Write flags
   LWAVE        =      T    write WAVECAR
   LDOWNSAMPLE  =      F    k-point downsampling of WAVECAR
   LCHARG       =      T    write CHGCAR
   LVTOT        =      F    write LOCPOT, total local potential
   LVHAR        =      F    write LOCPOT, Hartree potential only
   LELF         =      F    write electronic localiz. function (ELF)
   LORBIT       =     11    0 simple, 1 ext, 2 COOP (PROOUT), +10 PAW based schemes


 Dipole corrections
   LMONO  =      F    monopole corrections only (constant potential shift)
   LDIPOL =      F    correct potential (dipole corrections)
   IDIPOL =      0    1-x, 2-y, 3-z, 4-all directions 
   EPSILON=  1.0000000 bulk dielectric constant

 Exchange correlation treatment:
   GGA     =    PE    GGA type
   LEXCH   =     8    internal setting for exchange type
   VOSKOWN=      0    Vosko Wilk Nusair interpolation
   LHFCALC =     F    Hartree Fock is set to
   LHFONE  =     F    Hartree Fock one center treatment
   AEXX    =    0.0000 exact exchange contribution

 Linear response parameters
   LEPSILON=     F    determine dielectric tensor
   LRPA    =     F    only Hartree local field effects (RPA)
   LNABLA  =     F    use nabla operator in PAW spheres
   LVEL    =     F    velocity operator in full k-point grid
   LINTERFAST=   F  fast interpolation
   KINTER  =     0    interpolate to denser k-point grid
   CSHIFT  =0.1000    complex shift for real part using Kramers Kronig
   OMEGAMAX=  -1.0    maximum frequency
   DEG_THRESHOLD= 0.2000000E-02 threshold for treating states as degnerate
   RTIME   =   -0.100 relaxation time in fs
  (WPLASMAI=    0.000 imaginary part of plasma frequency in eV, 0.658/RTIME)
   DFIELD  = 0.0000000 0.0000000 0.0000000 field for delta impulse in time
 
 Orbital magnetization related:
   ORBITALMAG=     F  switch on orbital magnetization
   LCHIMAG   =     F  perturbation theory with respect to B field
   DQ        =  0.001000  dq finite difference perturbation B field
   LLRAUG    =     F  two centre corrections for induced B field



--------------------------------------------------------------------------------------------------------


 conjugate gradient relaxation of ions
 charge density and potential will be updated during run
 spin polarized calculation
 Variant of blocked Davidson
 Davidson routine will perform the subspace rotation
 perform sub-space diagonalisation
    after iterative eigenvector-optimisation
 modified Broyden-mixing scheme, WC =      100.0
 initial mixing is a Kerker type mixing with AMIX =  0.4000 and BMIX =      1.0000
 Hartree-type preconditioning will be used
 using additional bands           84
 real space projection scheme for non local part
 use partial core corrections
 calculate Harris-corrections to forces 
   (improved forces if not selfconsistent)
 use gradient corrections 
 use of overlap-Matrix (Vanderbilt PP)
 Gauss-broadening in eV      SIGMA  =   0.05


--------------------------------------------------------------------------------------------------------


  energy-cutoff  :      600.00
  volume of cell :     3096.90
      direct lattice vectors                 reciprocal lattice vectors
    19.206286642 -0.000328551 -0.007813216     0.052066296  0.000002435  0.000027089
    -0.002555793 29.764584603  2.237354049    -0.000000524  0.033800644 -0.002709508
    -0.002856076  0.436892141  5.450153646     0.000074856 -0.013875570  0.184593391

  length of vectors
    19.206288234 29.848555346  5.467637302     0.052066303  0.033909069  0.185114173


 
 k-points in units of 2pi/SCALE and weight: read from INCAR                         
   0.00000000  0.00000000  0.00000000       0.125
   0.02603315  0.00000122  0.00001354       0.125
   0.00001871 -0.00346889  0.04614835       0.250
   0.02605186 -0.00346768  0.04616189       0.250
   0.00003743 -0.00693779  0.09229670       0.125
   0.02607058 -0.00693657  0.09231024       0.125
 
 k-points in reciprocal lattice and weights: read from INCAR                         
   0.00000000  0.00000000  0.00000000       0.125
   0.50000000  0.00000000 -0.00000000       0.125
   0.00000000  0.00000000  0.25000000       0.250
   0.50000000  0.00000000  0.25000000       0.250
   0.00000000  0.00000000  0.50000000       0.125
   0.50000000  0.00000000  0.50000000       0.125
 
 position of ions in fractional coordinates (direct lattice) 
   0.87321826  0.96577214  0.10491685
   0.93260361  0.97990261  0.43730526
   0.86964315  0.81788280  0.89611763
   0.62658969  0.46570521  0.61175040
   0.57192578  0.30255391  0.07164388
   0.06749304  0.80093040  0.06642436
   0.56723040  0.47983580  0.94383133
   0.63062769  0.31767265  0.40336114
   0.42833954  0.47811448  0.44505758
   0.12663517  0.81506190  0.39935063
   0.07213217  0.97807097  0.93899430
   0.43224787  0.30089256  0.57270962
   0.92810571  0.80276821  0.56423912
   0.13075316  0.96293994  0.60748759
   0.37297112  0.31510195  0.90482094
   0.36970624  0.46294425  0.11324088
   0.79494209  0.04084271  0.45494314
   0.85861500  0.07392196  0.06686431
   0.85278650  0.71008235  0.93919382
   0.64059109  0.57387438  0.57100628
   0.64770979  0.20978183  0.44388406
   0.20506052  0.73970809  0.05182068
   0.70469258  0.54122415  0.95929052
   0.71120601  0.24286240  0.05537433
   0.28928127  0.53809839  0.45906034
   0.14115103  0.70697567  0.43998552
   0.14749376  0.07089576  0.56687744
   0.35829301  0.20697971  0.94369994
   0.78911380  0.74269644  0.54989906
   0.21132586  0.03785736  0.95513289
   0.29443211  0.23995043  0.55549876
   0.35297018  0.57083811  0.07039868
   0.75726096  0.08422732  0.44667842
   0.82134455  0.11719786  0.07057464
   0.81505319  0.66689706  0.93829767
   0.67808107  0.61715811  0.57238554
   0.68526523  0.16659796  0.44083737
   0.24301846  0.69637112  0.06230810
   0.74258748  0.58459254  0.94867863
   0.74929205  0.19958116  0.06470438
   0.25098692  0.58134469  0.44778964
   0.17860861  0.66369873  0.43817061
   0.18497251  0.11410790  0.56987638
   0.32110600  0.16365618  0.94003804
   0.75071894  0.69946617  0.56168059
   0.24932699  0.08116972  0.94582422
   0.25675554  0.19654992  0.56403456
   0.31535023  0.61404256  0.07183255
   0.70740740  0.08871647  0.62623686
   0.83508124  0.15413399  0.88831813
   0.82880639  0.63020884  0.12211646
   0.66427992  0.65389682  0.38886498
   0.67158184  0.12969162  0.62330344
   0.29314912  0.69177883  0.88386607
   0.79274652  0.58925702  0.12724238
   0.79920854  0.19510153  0.88534136
   0.20076678  0.58593405  0.62593346
   0.16475007  0.62689942  0.62111757
   0.17106159  0.15101050  0.38755444
   0.33504401  0.12673409  0.12226060
   0.70043623  0.69483050  0.38349180
   0.29933718  0.08570086  0.12511862
   0.20678491  0.19203190  0.38459063
   0.32914564  0.65081352  0.88865567
   0.88078412  0.99713860  0.26871868
   0.87597742  0.78631957  0.73301953
   0.61882369  0.49716918  0.77484174
   0.62430540  0.28616923  0.23986243
   0.11907521  0.78363777  0.23592551
   0.37615255  0.49454390  0.27612302
   0.12440907  0.99447705  0.77074330
   0.38045216  0.28370963  0.74121666
   0.77160227  0.12105568  0.25738725
   0.76498397  0.66286681  0.75253302
   0.72816224  0.62120460  0.75812748
   0.73504912  0.16275961  0.25416322
   0.22861471  0.65969921  0.25243126
   0.26532339  0.61801309  0.25753146
   0.23485859  0.11798153  0.75647668
   0.27128565  0.15973129  0.75326671
   0.97713440  0.89064781  0.00132344
   0.02301400  0.89028803  0.50169764
   0.52297287  0.39041685  0.50881362
   0.47708111  0.39007858  0.00895169
   0.37381502  0.13073639  0.26295149
   0.80298030  0.56037883  0.27067351
   0.80933913  0.22412240  0.74271817
   0.69721488  0.05967784  0.76866793
   0.69024572  0.72369203  0.23986150
   0.62527813  0.64981207  0.24907294
   0.12579707  0.63095393  0.76087587
   0.13223847  0.14700425  0.24704129
   0.86778538  0.63433368  0.26194105
   0.19644262  0.22107474  0.24228044
   0.19051980  0.55701646  0.76906125
   0.30338076  0.72070692  0.74075361
   0.36808725  0.64674221  0.74890678
   0.63283616  0.13367046  0.76386467
   0.87378892  0.15016531  0.74759433
   0.30965861  0.05667665  0.26761539
   0.54564807  0.49391801  0.09897918
   0.45366975  0.28681140  0.41731809
   0.33628606  0.46366982  0.95217986
   0.16005371  0.81380248  0.56076245
   0.05121844  0.99250648  0.09399073
   0.33943809  0.31389609  0.06569972
   0.83965761  0.96701171  0.94388590
   0.94892396  0.78831663  0.40913554
   0.16421012  0.96366832  0.44673727
   0.66006996  0.46698150  0.45069365
   0.55099781  0.28812155  0.91652669
   0.95412614  0.99395815  0.59276056
   0.66411593  0.31695150  0.56422817
   0.44927160  0.49260360  0.60000335
   0.04607753  0.78687553  0.91079777
   0.83631983  0.81713430  0.05721516
   0.91804190  0.93142032  0.17397304
   0.95447406  0.94007661  0.37743939
   0.91546457  0.85162397  0.82654972
   0.58210039  0.43120527  0.68154945
   0.54858365  0.34205860  0.13132858
   0.04575574  0.84084489  0.12552590
   0.54568957  0.43985860  0.88484189
   0.58459935  0.35133216  0.33444656
   0.45146890  0.43848765  0.38631995
   0.08205250  0.84950220  0.32927010
   0.04883479  0.93853935  0.87945786
   0.45418098  0.34072788  0.63246129
   0.95133821  0.84234869  0.62337932
   0.08480791  0.92924714  0.67652918
   0.41781922  0.34942725  0.83575942
   0.41549352  0.42918255  0.18317217
   0.84381359  0.03854439  0.26401203
   0.83817481  0.74517203  0.74030477
   0.65559682  0.53868696  0.76903389
   0.66223192  0.24509374  0.24608281
   0.15600112  0.74218210  0.24195947
   0.33836118  0.53569167  0.26890092
   0.16224631  0.03558935  0.76449582
   0.34343014  0.24230902  0.74628372
   0.78451863  0.00794920  0.61621787
   0.90019409  0.06826129  0.90341991
   0.89471376  0.71585997  0.10163696
   0.59868688  0.56806376  0.40856642
   0.60599925  0.21538928  0.60704423
   0.21544879  0.77240893  0.88936109
   0.71518176  0.50854620  0.12187654
   0.72126286  0.27566139  0.89320148
   0.27929154  0.50545961  0.62225753
   0.09939540  0.71275539  0.60266614
   0.10565435  0.06527189  0.40388175
   0.39992202  0.21267021  0.10720314
   0.77917968  0.77526468  0.38614068
   0.22148892  0.00506866  0.11731820
   0.28393136  0.27279290  0.39394456
   0.39477287  0.56509384  0.90779097
 
 position of ions in cartesian coordinates  (Angst):
  16.76851233 28.79135701  2.72576453
  17.90809887 29.35714299  4.56848327
  16.69796585 24.73516281  6.70707745
  12.03152365 14.12858517  4.37118543
  10.98359257  9.03650421  1.06292182
   1.29405397 23.86835888  2.15346050
  10.89046772 14.69427949  6.21315646
  12.11005223  9.63141265  2.90419914
   8.22431886 14.42518017  3.49199682
   2.42896764 24.43441036  3.99911490
   1.38020957 29.52209175  7.30539065
   8.29947177  9.20601240  3.79118136
  17.82180103 24.14026904  4.86401511
   2.50708655 28.92687101  5.46431670
   7.16000072  9.77406519  5.63349365
   7.09917731 13.82869594  1.65006178
  15.26648186  1.41416629  2.56467859
  16.49042594  2.22918689  0.52310185
  16.37436464 21.54535245  6.70079325
  12.30027849 17.33039023  4.39102705
  12.43829593  6.43778573  2.88353186
   3.93641258 22.03967677  1.93581739
  13.53040472 16.52818704  6.43368484
  13.65884756  7.25265729  0.83961098
   5.55333262 16.21673992  3.70360577
   2.70792368 21.23501704  3.97864075
   2.83100717  2.35779872  3.24703566
   6.87825397  6.57284252  5.60359713
  15.15247712 22.34603825  4.65254374
   4.05596037  1.54402920  5.28867018
   5.65274761  7.38462124  3.56210719
   6.77758638 17.02139995  1.65809273
  14.54268006  2.70189271  2.61699571
  15.77447770  3.51890927  0.64043841
  15.64976090 20.25958118  6.59958315
  13.02020734 18.61930271  4.49509231
  13.15971550  5.15109219  2.77001588
   4.66552448 20.75433917  1.89571871
  14.25814434 17.81438024  6.47258275
  14.39042303  5.96847297  0.79332814
   4.81776204 17.49903654  3.73923520
   3.42746051 19.94609155  3.87163068
   3.55071574  3.64528796  3.35976838
   6.16415081  5.28174792  5.48699970
  14.41513133 21.06446706  4.62033347
   4.78573677  2.82912439  5.33454470
   4.92920718  6.09656460  3.51182070
   6.05493230 18.30800124  1.76286516
  13.58465389  2.91397436  3.60605014
  16.03587872  4.97555904  5.17979791
  15.91633369 18.81098361  2.06907810
  12.75556874 19.63264097  3.57718242
  12.89648165  4.13231279  3.68201837
   5.62601364 20.97656746  6.36266961
  15.22384742 17.59432130  2.00567321
  15.34680105  6.19365207  5.25551323
   3.85269915 17.71348304  4.72080679
   3.16086086 18.93070823  4.78649493
   3.28396512  4.66402812  2.44875868
   6.43427826  3.82549216  0.94727033
  13.44990793 20.84865573  3.63919844
   5.74857936  2.60541545  0.87132006
   3.96998105  5.88370648  2.52410570
   6.31746408 19.75933266  6.29683849
  16.91327636 29.79652801  3.68862843
  16.82017019 23.72443818  5.74750015
  11.88182146 15.13635299  5.33051498
  11.98917195  8.62229720  1.94267114
   2.28431596 23.42768768  3.03817506
   7.22244113 14.84040607  2.60844374
   2.38469325 29.93688707  6.42469460
   7.30423109  8.76820594  4.67153101
  14.81856986  3.71536904  1.66761577
  14.68865788 20.05847954  5.57851131
  13.98153967 18.82087752  5.51607658
  14.11642224  4.95527251  1.74363635
   4.38843269 19.74588313  2.84998366
   5.09356206 18.50732927  2.78422708
   4.50829929  3.84209264  4.38504558
   5.20783030  5.08334257  4.46067515
  18.76484323 26.51001916  1.99227286
   0.43830525 26.71823347  4.72603894
  10.04191586 11.84272025  3.64252702
   9.16193397 11.61428120  0.91780447
   7.17851337  4.00607301  1.72270891
  15.42006461 16.79743438  2.72270420
  15.54170522  6.99513211  4.54304576
  13.38856084  2.11188188  4.31743129
  13.25452247 21.64495943  2.92104430
  12.00689891 19.44999879  2.80646001
   2.41230878 19.11246111  5.55757483
   2.53872863  4.48340730  1.67428034
  16.66456532 18.99483344  2.84006781
   3.77167630  6.68598380  1.81355327
   3.65555782 16.91529776  5.43625646
   5.82286026 21.77507198  5.64732716
   7.06579731 19.57708381  5.52577240
  12.15190940  4.31216430  4.45730345
  16.77972157  4.79593910  4.40364984
   5.94648290  1.80377417  1.58293127
  10.47832825 14.74432849  1.64025793
   8.71138638  8.71899609  2.91260171
   6.45490187 14.21682910  6.22429260
   3.07035602 24.46743282  4.87575523
   0.98091092 29.58259017  2.73245211
   6.51835545  9.37157898  1.05771813
  16.12153743 29.19480237  7.30131033
  18.22212236 23.64235344  3.98618082
   3.15012769 28.87830920  4.58957098
  12.67501218 14.09619808  3.49599531
  10.57926792  8.97606051  5.63553614
  18.32098682 29.84341032  5.44701762
  12.75277937  9.68021835  3.77907407
   8.62586654 14.92413072  4.36872885
   0.88036587 23.81892852  6.72414690
  16.06034656 24.34638510  2.13351580
  17.62929846 27.79904473  3.02492398
  18.32842179 28.14557652  4.15292936
  17.57813775 25.70904596  6.40305457
  11.17693829 13.13221811  4.67475998
  10.53500555 10.23842834  1.47678094
   0.87629033 25.08222524  2.56504568
  10.47701898 13.47860962  5.80238008
  11.22612956 10.60318070  2.60427197
   8.66881714 13.22003472  3.08302778
   1.57281227 25.42890864  3.69456872
   0.93302442 28.31944602  6.89264370
   8.72045284 10.41779194  4.20579148
  18.26774103 25.34419577  5.27471230
   1.62453785 27.95419746  5.76558019
   8.02147557 10.76555643  5.33354520
   7.97846751 12.85433015  1.95530343
  16.20567309  1.26232518  1.51855068
  16.09420680 22.50289389  5.69543958
  12.58800732 16.36956314  5.39146399
  12.71768682  7.40240737  1.88437642
   2.99361431 22.19640098  2.97802153
   6.49652464 16.06200966  2.66143958
   3.11387471  1.39325126  4.24497798
   6.59326696  7.53815987  4.60680869
  15.06590940  0.50556753  3.37013761
  17.28663094  2.42617018  5.06946858
  17.18200905 21.35138499  2.14857865
  11.49593308 17.08648453  3.49303184
  11.63671097  6.67598611  3.78565161
   4.13345708 23.37891515  6.57362352
  13.73433808 15.18967843  1.79645588
  13.84952564  8.59494240  5.47920202
   5.36108434 15.31656306  4.52010908
   1.90547359 21.47813550  4.87853260
   2.02790742  2.11920868  2.34642842
   7.68016731  6.37674527  1.05696748
  14.96206405 23.24387692  3.83297971
   4.25363164  0.20204924  0.64901206
   5.45144472  8.29158536  2.75517424
   7.57808393 17.21626038  6.20883080
 


--------------------------------------------------------------------------------------------------------


 k-point  1 :   0.0000 0.0000 0.0000  plane waves:  103277
 k-point  2 :   0.5000 0.0000-0.0000  plane waves:  103294
 k-point  3 :   0.0000 0.0000 0.2500  plane waves:  103397
 k-point  4 :   0.5000 0.0000 0.2500  plane waves:  103363
 k-point  5 :   0.0000 0.0000 0.5000  plane waves:  103444
 k-point  6 :   0.5000 0.0000 0.5000  plane waves:  103450

 maximum and minimum number of plane-waves per node :     25932    25706

 maximum number of plane-waves:    103450
 maximum index in each direction: 
   IXMAX=   38   IYMAX=   59   IZMAX=   10
   IXMIN=  -38   IYMIN=  -59   IZMIN=  -11


 real space projection operators:
  total allocation   :      12885.91 KBytes
  max/ min on nodes  :       3249.54       3197.57


 parallel 3D FFT for wavefunctions:
    minimum data exchange during FFTs selected (reduces bandwidth)
 parallel 3D FFT for charge:
    minimum data exchange during FFTs selected (reduces bandwidth)


 total amount of memory used by VASP MPI-rank0   127863. kBytes
=======================================================================

   base      :      30000. kBytes
   nonlr-proj:       7098. kBytes
   fftplans  :       7780. kBytes
   grid      :      21242. kBytes
   one-center:       1213. kBytes
   wavefun   :      60530. kBytes
 
     INWAV:  cpu time    0.0002: real time    0.0006
 Broyden mixing: mesh for mixing (old mesh)
   NGX = 77   NGY =119   NGZ = 21
  (NGX  =240   NGY  =360   NGZ  = 72)
  gives a total of 192423 points

 initial charge density was supplied:
 charge density of overlapping atoms calculated
 number of electron     600.0000000 magnetization      -0.0000000
 keeping initial charge density in first step


--------------------------------------------------------------------------------------------------------


 Maximum index for non-local projection operator          635
 Maximum index for augmentation-charges          497 (set IRDMAX)


--------------------------------------------------------------------------------------------------------


 First call to EWALD:  gamma=   0.122
 Maximum number of real-space cells 2x 2x 7
 Maximum number of reciprocal cells 3x 5x 1

    FEWALD:  cpu time    0.0160: real time    0.0164


--------------------------------------- Iteration      1(   1)  ---------------------------------------


    POTLOK:  cpu time    0.3025: real time    0.4297
    SETDIJ:  cpu time    0.0643: real time    0.0653
     EDDAV:  cpu time   28.2268: real time   28.4042
       DOS:  cpu time    0.0094: real time    0.0098
    --------------------------------------------
      LOOP:  cpu time   28.6032: real time   28.9091

 eigenvalue-minimisations  :  9216
 total energy-change (2. order) : 0.5255085E+04  (-0.2814488E+05)
 number of electron     600.0000000 magnetization      -0.0000000
 augmentation part      600.0000000 magnetization      -0.0000000

 Free energy of the ion-electron system (eV)
  ---------------------------------------------------
  alpha Z        PSCENC =       572.35050772
  Ewald energy   TEWEN  =     33626.90901612
  -Hartree energ DENC   =    -57333.73940567
  -exchange      EXHF   =         0.00000000
  -V(xc)+E(xc)   XCENC  =      2066.84040401
  PAW double counting   =     21422.65208726   -21556.96843230
  entropy T*S    EENTRO =        -0.04584338
  eigenvalues    EBANDS =     -1358.51787984
  atomic energy  EATOM  =     27815.60422923
  Solvation  Ediel_sol  =         0.00000000
  ---------------------------------------------------
  free energy    TOTEN  =      5255.08468315 eV

  energy without entropy =     5255.13052652  energy(sigma->0) =     5255.10760484


--------------------------------------------------------------------------------------------------------




--------------------------------------- Iteration      1(   2)  ---------------------------------------


     EDDAV:  cpu time   36.3062: real time   36.3593
       DOS:  cpu time    0.0042: real time    0.0042
    --------------------------------------------
      LOOP:  cpu time   36.3104: real time   36.3636

 eigenvalue-minimisations  : 12416
 total energy-change (2. order) :-0.5686340E+04  (-0.5484807E+04)
 number of electron     600.0000000 magnetization      -0.0000000
 augmentation part      600.0000000 magnetization      -0.0000000

 Free energy of the ion-electron system (eV)
  ---------------------------------------------------
  alpha Z        PSCENC =       572.35050772
  Ewald energy   TEWEN  =     33626.90901612
  -Hartree energ DENC   =    -57333.73940567
  -exchange      EXHF   =         0.00000000
  -V(xc)+E(xc)   XCENC  =      2066.84040401
  PAW double counting   =     21422.65208726   -21556.96843230
  entropy T*S    EENTRO =        -0.00699271
  eigenvalues    EBANDS =     -7044.89648785
  atomic energy  EATOM  =     27815.60422923
  Solvation  Ediel_sol  =         0.00000000
  ---------------------------------------------------
  free energy    TOTEN  =      -431.25507420 eV

  energy without entropy =     -431.24808148  energy(sigma->0) =     -431.25157784


--------------------------------------------------------------------------------------------------------




--------------------------------------- Iteration      1(   3)  ---------------------------------------


     EDDAV:  cpu time   32.9136: real time   32.9668
       DOS:  cpu time    0.0060: real time    0.0060
    --------------------------------------------
      LOOP:  cpu time   32.9195: real time   32.9727

 eigenvalue-minimisations  : 11072
 total energy-change (2. order) :-0.8312864E+03  (-0.8223867E+03)
 number of electron     600.0000000 magnetization      -0.0000000
 augmentation part      600.0000000 magnetization      -0.0000000

 Free energy of the ion-electron system (eV)
  ---------------------------------------------------
  alpha Z        PSCENC =       572.35050772
  Ewald energy   TEWEN  =     33626.90901612
  -Hartree energ DENC   =    -57333.73940567
  -exchange      EXHF   =         0.00000000
  -V(xc)+E(xc)   XCENC  =      2066.84040401
  PAW double counting   =     21422.65208726   -21556.96843230
  entropy T*S    EENTRO =        -0.07709262
  eigenvalues    EBANDS =     -7876.11275422
  atomic energy  EATOM  =     27815.60422923
  Solvation  Ediel_sol  =         0.00000000
  ---------------------------------------------------
  free energy    TOTEN  =     -1262.54144047 eV

  energy without entropy =    -1262.46434785  energy(sigma->0) =    -1262.50289416


--------------------------------------------------------------------------------------------------------




--------------------------------------- Iteration      1(   4)  ---------------------------------------


     EDDAV:  cpu time   39.6567: real time   39.7048
       DOS:  cpu time    0.0049: real time    0.0049
    --------------------------------------------
      LOOP:  cpu time   39.6616: real time   39.7096

 eigenvalue-minimisations  : 13856
 total energy-change (2. order) :-0.3444391E+02  (-0.3415000E+02)
 number of electron     600.0000000 magnetization      -0.0000000
 augmentation part      600.0000000 magnetization      -0.0000000

 Free energy of the ion-electron system (eV)
  ---------------------------------------------------
  alpha Z        PSCENC =       572.35050772
  Ewald energy   TEWEN  =     33626.90901612
  -Hartree energ DENC   =    -57333.73940567
  -exchange      EXHF   =         0.00000000
  -V(xc)+E(xc)   XCENC  =      2066.84040401
  PAW double counting   =     21422.65208726   -21556.96843230
  entropy T*S    EENTRO =        -0.07727728
  eigenvalues    EBANDS =     -7910.55647665
  atomic energy  EATOM  =     27815.60422923
  Solvation  Ediel_sol  =         0.00000000
  ---------------------------------------------------
  free energy    TOTEN  =     -1296.98534756 eV

  energy without entropy =    -1296.90807028  energy(sigma->0) =    -1296.94670892


--------------------------------------------------------------------------------------------------------




--------------------------------------- Iteration      1(   5)  ---------------------------------------


     EDDAV:  cpu time   35.4822: real time   35.5266
       DOS:  cpu time    0.0046: real time    0.0046
    --------------------------------------------
      LOOP:  cpu time   35.4868: real time   35.5312

 eigenvalue-minimisations  : 12000
 total energy-change (2. order) :-0.5936654E+00  (-0.5907109E+00)
 number of electron     600.0000000 magnetization      -0.0000000
 augmentation part      600.0000000 magnetization      -0.0000000

 Free energy of the ion-electron system (eV)
  ---------------------------------------------------
  alpha Z        PSCENC =       572.35050772
  Ewald energy   TEWEN  =     33626.90901612
  -Hartree energ DENC   =    -57333.73940567
  -exchange      EXHF   =         0.00000000
  -V(xc)+E(xc)   XCENC  =      2066.84040401
  PAW double counting   =     21422.65208726   -21556.96843230
  entropy T*S    EENTRO =        -0.07469448
  eigenvalues    EBANDS =     -7911.15272483
  atomic energy  EATOM  =     27815.60422923
  Solvation  Ediel_sol  =         0.00000000
  ---------------------------------------------------
  free energy    TOTEN  =     -1297.57901294 eV

  energy without entropy =    -1297.50431846  energy(sigma->0) =    -1297.54166570


--------------------------------------------------------------------------------------------------------




--------------------------------------- Iteration      1(   6)  ---------------------------------------


     EDDAV:  cpu time   42.1663: real time   42.2187
       DOS:  cpu time    0.0047: real time    0.0047
    --------------------------------------------
      LOOP:  cpu time   42.1710: real time   42.2234

 eigenvalue-minimisations  : 14304
 total energy-change (2. order) :-0.3309813E-01  (-0.3306566E-01)
 number of electron     600.0000000 magnetization      -0.0000000
 augmentation part      600.0000000 magnetization      -0.0000000

 Free energy of the ion-electron system (eV)
  ---------------------------------------------------
  alpha Z        PSCENC =       572.35050772
  Ewald energy   TEWEN  =     33626.90901612
  -Hartree energ DENC   =    -57333.73940567
  -exchange      EXHF   =         0.00000000
  -V(xc)+E(xc)   XCENC  =      2066.84040401
  PAW double counting   =     21422.65208726   -21556.96843230
  entropy T*S    EENTRO =        -0.07460076
  eigenvalues    EBANDS =     -7911.18591668
  atomic energy  EATOM  =     27815.60422923
  Solvation  Ediel_sol  =         0.00000000
  ---------------------------------------------------
  free energy    TOTEN  =     -1297.61211107 eV

  energy without entropy =    -1297.53751032  energy(sigma->0) =    -1297.57481069


--------------------------------------------------------------------------------------------------------




--------------------------------------- Iteration      1(   7)  ---------------------------------------


     EDDAV:  cpu time   36.3411: real time   36.3865
       DOS:  cpu time    0.0046: real time    0.0046
    --------------------------------------------
      LOOP:  cpu time   36.3457: real time   36.3911

 eigenvalue-minimisations  : 12000
 total energy-change (2. order) :-0.5563220E-03  (-0.5558322E-03)
 number of electron     600.0000000 magnetization      -0.0000000
 augmentation part      600.0000000 magnetization      -0.0000000

 Free energy of the ion-electron system (eV)
  ---------------------------------------------------
  alpha Z        PSCENC =       572.35050772
  Ewald energy   TEWEN  =     33626.90901612
  -Hartree energ DENC   =    -57333.73940567
  -exchange      EXHF   =         0.00000000
  -V(xc)+E(xc)   XCENC  =      2066.84040401
  PAW double counting   =     21422.65208726   -21556.96843230
  entropy T*S    EENTRO =        -0.07459346
  eigenvalues    EBANDS =     -7911.18648030
  atomic energy  EATOM  =     27815.60422923
  Solvation  Ediel_sol  =         0.00000000
  ---------------------------------------------------
  free energy    TOTEN  =     -1297.61266739 eV

  energy without entropy =    -1297.53807394  energy(sigma->0) =    -1297.57537067


--------------------------------------------------------------------------------------------------------




--------------------------------------- Iteration      1(   8)  ---------------------------------------


     EDDAV:  cpu time   41.1503: real time   41.2249
       DOS:  cpu time    0.0046: real time    0.0046
    CHARGE:  cpu time    1.3144: real time    1.3245
    MIXING:  cpu time    0.0133: real time    0.0157
    --------------------------------------------
      LOOP:  cpu time   42.4827: real time   42.5697

 eigenvalue-minimisations  : 14304
 total energy-change (2. order) :-0.2365329E-04  (-0.2364995E-04)
 number of electron     600.0000087 magnetization       0.0005631
 augmentation part       33.4435925 magnetization      -0.0023565

 Broyden mixing:
  rms(total) = 0.89820E+01    rms(broyden)= 0.89814E+01
  rms(prec ) = 0.96349E+01
  weight for this iteration     100.00

 Free energy of the ion-electron system (eV)
  ---------------------------------------------------
  alpha Z        PSCENC =       572.35050772
  Ewald energy   TEWEN  =     33626.90901612
  -Hartree energ DENC   =    -57333.73940567
  -exchange      EXHF   =         0.00000000
  -V(xc)+E(xc)   XCENC  =      2066.84040401
  PAW double counting   =     21422.65208726   -21556.96843230
  entropy T*S    EENTRO =        -0.07459332
  eigenvalues    EBANDS =     -7911.18650409
  atomic energy  EATOM  =     27815.60422923
  Solvation  Ediel_sol  =         0.00000000
  ---------------------------------------------------
  free energy    TOTEN  =     -1297.61269105 eV

  energy without entropy =    -1297.53809772  energy(sigma->0) =    -1297.57539439


--------------------------------------------------------------------------------------------------------




--------------------------------------- Iteration      1(   9)  ---------------------------------------


    POTLOK:  cpu time    0.2585: real time    0.2599
    SETDIJ:  cpu time    0.0613: real time    0.0613
     EDDAV:  cpu time   43.0688: real time   43.1310
       DOS:  cpu time    0.0047: real time    0.0047
[...]
     12.67501     14.09620      3.49600        -0.001588     -0.001493      0.000247
     10.57927      8.97606      5.63554        -0.000086      0.000286     -0.001637
     18.32099     29.84341      5.44702        -0.001046     -0.002377     -0.000142
     12.75278      9.68022      3.77907         0.000257      0.000571      0.001806
      8.62587     14.92413      4.36873        -0.001504     -0.002013     -0.002644
      0.88037     23.81893      6.72415         0.000329     -0.000154      0.000752
     16.06035     24.34639      2.13352        -0.001833      0.001322      0.001163
     17.62930     27.79904      3.02492         0.001261     -0.001367      0.000216
     18.32842     28.14558      4.15293        -0.001785      0.000392     -0.000405
     17.57814     25.70905      6.40305         0.000017      0.003081      0.000045
     11.17694     13.13222      4.67476         0.000856     -0.000983      0.001049
     10.53501     10.23843      1.47678         0.001316     -0.001363     -0.000734
      0.87629     25.08223      2.56505         0.000716      0.000771      0.000836
     10.47702     13.47861      5.80238         0.001169      0.001892     -0.000621
     11.22613     10.60318      2.60427        -0.002525      0.002960     -0.001098
      8.66882     13.22003      3.08303         0.000051     -0.000640     -0.002443
      1.57281     25.42891      3.69457        -0.002564      0.002757     -0.000684
      0.93302     28.31945      6.89264        -0.000547     -0.001749      0.000651
      8.72045     10.41779      4.20579         0.000218     -0.000155      0.000855
     18.26774     25.34420      5.27471         0.000266      0.000467      0.001815
      1.62454     27.95420      5.76558        -0.002210     -0.001725     -0.000630
      8.02148     10.76556      5.33355         0.001746      0.003689      0.000314
      7.97847     12.85433      1.95530         0.001044     -0.002380     -0.001411
     16.20567      1.26233      1.51855        -0.001839     -0.000217     -0.000266
     16.09421     22.50289      5.69544        -0.000623     -0.000607     -0.001144
     12.58801     16.36956      5.39146         0.003184     -0.000670     -0.000172
     12.71769      7.40241      1.88438         0.001597     -0.003510     -0.000998
      2.99361     22.19640      2.97802         0.001160     -0.001869     -0.000790
      6.49652     16.06201      2.66144        -0.001354      0.002403     -0.001386
      3.11387      1.39325      4.24498         0.002635      0.001026     -0.001052
      6.59327      7.53816      4.60681        -0.002571     -0.004771      0.000213
     15.06591      0.50557      3.37014         0.002763      0.002378     -0.001455
     17.28663      2.42617      5.06947        -0.000203     -0.002754     -0.005182
     17.18201     21.35138      2.14858        -0.005150     -0.001121      0.001071
     11.49593     17.08648      3.49303         0.004232     -0.004058     -0.001847
     11.63671      6.67599      3.78565         0.003553     -0.001334     -0.001806
      4.13346     23.37892      6.57362        -0.000725      0.003116      0.003932
     13.73434     15.18968      1.79646        -0.003207      0.001417      0.000855
     13.84953      8.59494      5.47920        -0.005075     -0.003639      0.000404
      5.36108     15.31656      4.52011        -0.000892     -0.001014      0.000992
      1.90547     21.47814      4.87853        -0.000026     -0.002199     -0.001044
      2.02791      2.11921      2.34643         0.002957     -0.000967     -0.001423
      7.68017      6.37675      1.05697         0.000984      0.000698      0.001467
     14.96206     23.24388      3.83298        -0.001013     -0.000244      0.002690
      4.25363      0.20205      0.64901        -0.001387      0.000775      0.001889
      5.45144      8.29159      2.75517         0.000758      0.000561      0.003422
      7.57808     17.21626      6.20883         0.000133      0.000890      0.000111
 -----------------------------------------------------------------------------------
    total drift:                               -0.008156     -0.016463      0.000128


--------------------------------------------------------------------------------------------------------



  FREE ENERGIE OF THE ION-ELECTRON SYSTEM (eV)
  ---------------------------------------------------
  free  energy   TOTEN  =     -1186.09477894 eV

  energy  without entropy=    -1186.07098151  energy(sigma->0) =    -1186.08288022
 


--------------------------------------------------------------------------------------------------------


    POTLOK:  cpu time    0.4496: real time    0.4507


--------------------------------------------------------------------------------------------------------




--------------------------------------------------------------------------------------------------------


  
 reached required accuracy - stopping structural energy minimisation
 writing wavefunctions
     LOOP+:  cpu time 2358.8188: real time 2409.1703
    4ORBIT:  cpu time    0.0000: real time    0.0000
 


 total charge     
 
# of ion       s       p       d       tot
------------------------------------------
    1        0.870   1.770   0.000   2.641
    2        0.869   1.771   0.000   2.640
    3        0.870   1.770   0.000   2.641
    4        0.870   1.770   0.000   2.641
    5        0.869   1.771   0.000   2.640
    6        0.869   1.771   0.000   2.639
    7        0.869   1.771   0.000   2.639
    8        0.870   1.770   0.000   2.641
    9        0.869   1.771   0.000   2.640
   10        0.870   1.771   0.000   2.641
   11        0.869   1.771   0.000   2.640
   12        0.869   1.771   0.000   2.640
   13        0.869   1.771   0.000   2.640
   14        0.870   1.770   0.000   2.640
   15        0.870   1.770   0.000   2.641
   16        0.870   1.770   0.000   2.641
   17        0.864   1.717   0.000   2.581
   18        0.864   1.717   0.000   2.581
   19        0.864   1.717   0.000   2.581
   20        0.864   1.717   0.000   2.581
   21        0.864   1.717   0.000   2.581
   22        0.864   1.718   0.000   2.581
   23        0.864   1.718   0.000   2.581
   24        0.864   1.717   0.000   2.581
   25        0.864   1.717   0.000   2.581
   26        0.864   1.717   0.000   2.581
   27        0.864   1.717   0.000   2.581
   28        0.864   1.717   0.000   2.581
   29        0.864   1.717   0.000   2.581
   30        0.864   1.717   0.000   2.581
   31        0.864   1.718   0.000   2.581
   32        0.864   1.717   0.000   2.581
   33        0.866   1.786   0.000   2.651
   34        0.866   1.784   0.000   2.650
   35        0.866   1.785   0.000   2.651
   36        0.866   1.784   0.000   2.650
   37        0.866   1.785   0.000   2.650
   38        0.866   1.786   0.000   2.652
   39        0.866   1.786   0.000   2.651
   40        0.866   1.785   0.000   2.651
   41        0.866   1.785   0.000   2.651
   42        0.866   1.784   0.000   2.650
   43        0.866   1.785   0.000   2.651
   44        0.866   1.784   0.000   2.650
   45        0.866   1.785   0.000   2.651
   46        0.866   1.786   0.000   2.651
   47        0.866   1.786   0.000   2.651
   48        0.866   1.785   0.000   2.651
   49        0.870   1.767   0.000   2.637
   50        0.870   1.767   0.000   2.637
   51        0.870   1.768   0.000   2.638
   52        0.870   1.767   0.000   2.637
   53        0.870   1.768   0.000   2.638
   54        0.870   1.767   0.000   2.637
   55        0.870   1.767   0.000   2.637
   56        0.870   1.767   0.000   2.637
   57        0.870   1.767   0.000   2.637
   58        0.870   1.767   0.000   2.637
   59        0.870   1.768   0.000   2.638
   60        0.870   1.767   0.000   2.637
   61        0.870   1.767   0.000   2.637
   62        0.870   1.767   0.000   2.637
   63        0.870   1.767   0.000   2.637
   64        0.870   1.768   0.000   2.638
   65        0.848   1.790   0.000   2.638
   66        0.848   1.791   0.000   2.639
   67        0.848   1.790   0.000   2.638
   68        0.848   1.791   0.000   2.639
   69        0.848   1.790   0.000   2.638
   70        0.848   1.791   0.000   2.639
   71        0.848   1.791   0.000   2.639
   72        0.848   1.790   0.000   2.638
   73        0.865   1.791   0.000   2.656
   74        0.865   1.791   0.000   2.656
   75        0.865   1.791   0.000   2.656
   76        0.865   1.791   0.000   2.656
   77        0.865   1.791   0.000   2.656
   78        0.865   1.791   0.000   2.656
   79        0.865   1.791   0.000   2.656
   80        0.865   1.791   0.000   2.656
   81        0.392   0.498   6.044   6.933
   82        0.392   0.498   6.044   6.934
   83        0.392   0.497   6.044   6.932
   84        0.392   0.498   6.044   6.933
   85        0.638   0.048   0.000   0.686
   86        0.638   0.048   0.000   0.686
   87        0.638   0.048   0.000   0.686
   88        0.638   0.048   0.000   0.686
   89        0.638   0.048   0.000   0.686
   90        0.638   0.048   0.000   0.686
   91        0.638   0.048   0.000   0.686
   92        0.638   0.048   0.000   0.686
   93        0.638   0.048   0.000   0.686
   94        0.638   0.048   0.000   0.686
   95        0.638   0.048   0.000   0.686
   96        0.638   0.048   0.000   0.686
   97        0.638   0.048   0.000   0.686
   98        0.638   0.048   0.000   0.686
   99        0.638   0.048   0.000   0.686
  100        0.638   0.048   0.000   0.686
  101        0.633   0.049   0.000   0.682
  102        0.633   0.049   0.000   0.682
  103        0.628   0.051   0.000   0.679
  104        0.628   0.051   0.000   0.679
  105        0.633   0.050   0.000   0.682
  106        0.628   0.051   0.000   0.678
  107        0.628   0.051   0.000   0.678
  108        0.633   0.049   0.000   0.682
  109        0.628   0.051   0.000   0.679
  110        0.628   0.051   0.000   0.678
  111        0.633   0.049   0.000   0.682
  112        0.633   0.049   0.000   0.682
  113        0.628   0.051   0.000   0.679
  114        0.633   0.049   0.000   0.682
  115        0.633   0.049   0.000   0.682
  116        0.628   0.051   0.000   0.679
  117        1.241   2.609   0.000   3.850
  118        1.240   2.608   0.000   3.848
  119        1.241   2.609   0.000   3.850
  120        1.241   2.609   0.000   3.850
  121        1.240   2.608   0.000   3.848
  122        1.240   2.608   0.000   3.848
  123        1.240   2.608   0.000   3.848
  124        1.241   2.608   0.000   3.850
  125        1.240   2.608   0.000   3.847
  126        1.241   2.609   0.000   3.851
  127        1.240   2.608   0.000   3.848
  128        1.240   2.608   0.000   3.848
  129        1.240   2.608   0.000   3.848
  130        1.241   2.608   0.000   3.850
  131        1.241   2.609   0.000   3.850
  132        1.241   2.608   0.000   3.850
  133        1.211   2.731   0.000   3.942
  134        1.211   2.731   0.000   3.943
  135        1.211   2.730   0.000   3.942
  136        1.211   2.731   0.000   3.942
  137        1.211   2.731   0.000   3.942
  138        1.211   2.731   0.000   3.942
  139        1.211   2.731   0.000   3.942
  140        1.211   2.731   0.000   3.942
  141        1.584   3.542   0.000   5.126
  142        1.585   3.537   0.000   5.121
  143        1.585   3.537   0.000   5.121
  144        1.585   3.536   0.000   5.121
  145        1.585   3.537   0.000   5.121
  146        1.584   3.542   0.000   5.126
  147        1.584   3.542   0.000   5.126
  148        1.584   3.542   0.000   5.126
  149        1.584   3.542   0.000   5.126
  150        1.585   3.536   0.000   5.121
  151        1.585   3.537   0.000   5.121
  152        1.585   3.537   0.000   5.121
  153        1.584   3.542   0.000   5.126
  154        1.584   3.542   0.000   5.126
  155        1.584   3.542   0.000   5.126
  156        1.585   3.537   0.000   5.121
--------------------------------------------------
tot        145.959 265.063  24.175 435.198
 


 magnetization (x)
 
# of ion       s       p       d       tot
------------------------------------------
    1        0.003   0.019   0.000   0.021
    2        0.003   0.018   0.000   0.021
    3        0.003   0.019   0.000   0.022
    4       -0.003  -0.019   0.000  -0.021
    5       -0.003  -0.018   0.000  -0.021
    6        0.003   0.018   0.000   0.021
    7       -0.003  -0.018   0.000  -0.021
    8       -0.003  -0.019   0.000  -0.022
    9       -0.003  -0.018   0.000  -0.021
   10        0.003   0.019   0.000   0.021
   11        0.003   0.018   0.000   0.021
   12       -0.003  -0.018   0.000  -0.021
   13        0.003   0.018   0.000   0.021
   14        0.003   0.019   0.000   0.022
   15       -0.003  -0.019   0.000  -0.021
   16       -0.003  -0.019   0.000  -0.021
   17        0.000   0.001   0.000   0.001
   18        0.000   0.001   0.000   0.001
   19        0.000   0.001   0.000   0.001
   20       -0.000  -0.001   0.000  -0.001
   21       -0.000  -0.001   0.000  -0.001
   22        0.000   0.001   0.000   0.001
   23       -0.000  -0.001   0.000  -0.001
   24       -0.000  -0.001   0.000  -0.001
   25       -0.000  -0.001   0.000  -0.001
   26        0.000   0.001   0.000   0.001
   27        0.000   0.001   0.000   0.001
   28       -0.000  -0.001   0.000  -0.001
   29        0.000   0.001   0.000   0.001
   30        0.000   0.001   0.000   0.001
   31       -0.000  -0.001   0.000  -0.001
   32       -0.000  -0.001   0.000  -0.001
   33       -0.000  -0.000   0.000  -0.000
   34        0.000  -0.000   0.000  -0.000
   35        0.000  -0.000   0.000  -0.000
   36       -0.000   0.000   0.000   0.000
   37       -0.000   0.000   0.000   0.000
   38       -0.000  -0.000   0.000  -0.000
   39        0.000   0.000   0.000   0.000
   40        0.000   0.000   0.000   0.000
   41        0.000   0.000   0.000   0.000
   42        0.000  -0.000   0.000  -0.000
   43        0.000  -0.000   0.000  -0.000
   44       -0.000   0.000   0.000   0.000
   45       -0.000  -0.000   0.000  -0.000
   46       -0.000  -0.000   0.000  -0.000
   47        0.000   0.000   0.000   0.000
   48       -0.000   0.000   0.000   0.000
   49        0.000   0.000   0.000   0.000
   50        0.000   0.000   0.000   0.000
   51        0.000   0.000   0.000   0.000
   52       -0.000  -0.000   0.000  -0.000
   53       -0.000  -0.000   0.000  -0.000
   54        0.000   0.000   0.000   0.000
   55       -0.000  -0.000   0.000  -0.000
   56       -0.000  -0.000   0.000  -0.000
   57       -0.000  -0.000   0.000  -0.000
   58        0.000   0.000   0.000   0.000
   59        0.000   0.000   0.000   0.000
   60       -0.000  -0.000   0.000  -0.000
   61        0.000   0.000   0.000   0.000
   62        0.000   0.000   0.000   0.000
   63       -0.000  -0.000   0.000  -0.000
   64       -0.000  -0.000   0.000  -0.000
   65        0.002   0.016   0.000   0.018
   66        0.002   0.016   0.000   0.018
   67       -0.002  -0.016   0.000  -0.018
   68       -0.002  -0.016   0.000  -0.018
   69        0.002   0.016   0.000   0.018
   70       -0.002  -0.016   0.000  -0.018
   71        0.002   0.016   0.000   0.018
   72       -0.002  -0.016   0.000  -0.018
   73        0.000   0.000   0.000   0.000
   74        0.000   0.000   0.000   0.000
   75       -0.000  -0.000   0.000  -0.000
   76       -0.000  -0.000   0.000  -0.000
   77        0.000   0.000   0.000   0.000
   78       -0.000  -0.000   0.000  -0.000
   79        0.000   0.000   0.000   0.000
   80       -0.000  -0.000   0.000  -0.000
   81        0.016   0.057   3.424   3.497
   82        0.016   0.057   3.424   3.496
   83       -0.016  -0.057  -3.425  -3.497
   84       -0.016  -0.057  -3.424  -3.497
   85        0.000  -0.000   0.000   0.000
   86        0.000  -0.000   0.000   0.000
   87        0.000  -0.000   0.000   0.000
   88       -0.000   0.000   0.000  -0.000
   89       -0.000   0.000   0.000  -0.000
   90        0.000  -0.000   0.000   0.000
   91       -0.000   0.000   0.000  -0.000
   92       -0.000   0.000   0.000  -0.000
   93       -0.000   0.000   0.000  -0.000
   94        0.000  -0.000   0.000   0.000
   95        0.000  -0.000   0.000   0.000
   96       -0.000   0.000   0.000  -0.000
   97        0.000  -0.000   0.000   0.000
   98        0.000  -0.000   0.000   0.000
   99       -0.000   0.000   0.000  -0.000
  100       -0.000   0.000   0.000  -0.000
  101       -0.000  -0.000   0.000  -0.000
  102       -0.000  -0.000   0.000  -0.000
  103        0.000  -0.000   0.000  -0.000
  104       -0.000   0.000   0.000   0.000
  105        0.000   0.000   0.000   0.000
  106        0.000  -0.000   0.000  -0.000
  107       -0.000   0.000   0.000   0.000
  108        0.000   0.000   0.000   0.000
  109       -0.000   0.000   0.000   0.000
  110        0.000  -0.000   0.000  -0.000
  111       -0.000  -0.000   0.000  -0.000
  112        0.000   0.000   0.000   0.000
  113        0.000  -0.000   0.000  -0.000
  114       -0.000  -0.000   0.000  -0.000
  115        0.000   0.000   0.000   0.000
  116       -0.000   0.000   0.000   0.000
  117        0.012   0.040   0.000   0.052
  118        0.015   0.049   0.000   0.063
  119        0.012   0.040   0.000   0.052
  120       -0.012  -0.040   0.000  -0.052
  121       -0.015  -0.049   0.000  -0.064
  122        0.015   0.049   0.000   0.064
  123       -0.015  -0.049   0.000  -0.064
  124       -0.012  -0.040   0.000  -0.052
  125       -0.015  -0.049   0.000  -0.064
  126        0.012   0.040   0.000   0.052
  127        0.015   0.049   0.000   0.064
  128       -0.015  -0.049   0.000  -0.063
  129        0.015   0.049   0.000   0.064
  130        0.012   0.040   0.000   0.052
  131       -0.012  -0.040   0.000  -0.052
  132       -0.012  -0.040   0.000  -0.052
  133        0.000   0.000   0.000   0.000
  134        0.000   0.000   0.000   0.000
  135       -0.000  -0.000   0.000  -0.000
  136       -0.000  -0.000   0.000  -0.000
  137        0.000   0.000   0.000   0.000
  138       -0.000  -0.000   0.000  -0.000
  139        0.000   0.000   0.000   0.000
  140       -0.000  -0.000   0.000  -0.000
  141        0.000   0.001   0.000   0.001
  142        0.000   0.001   0.000   0.001
  143        0.000   0.001   0.000   0.001
  144       -0.000  -0.001   0.000  -0.001
  145       -0.000  -0.001   0.000  -0.001
  146        0.000   0.001   0.000   0.001
  147       -0.000  -0.001   0.000  -0.001
  148       -0.000  -0.001   0.000  -0.001
  149       -0.000  -0.001   0.000  -0.001
  150        0.000   0.001   0.000   0.001
  151        0.000   0.001   0.000   0.001
  152       -0.000  -0.001   0.000  -0.001
  153        0.000   0.001   0.000   0.001
  154        0.000   0.001   0.000   0.001
  155       -0.000  -0.001   0.000  -0.001
  156       -0.000  -0.001   0.000  -0.001
--------------------------------------------------
tot          0.000   0.001  -0.001  -0.000
 

 total amount of memory used by VASP MPI-rank0   127863. kBytes
=======================================================================

   base      :      30000. kBytes
   nonlr-proj:       7098. kBytes
   fftplans  :       7780. kBytes
   grid      :      21242. kBytes
   one-center:       1213. kBytes
   wavefun   :      60530. kBytes
 
  
  
 General timing and accounting informations for this job:
 ========================================================
  
                  Total CPU time used (sec):     2615.157
                            User time (sec):     2469.493
                          System time (sec):      145.664
                         Elapsed time (sec):     2678.472
  
                   Maximum memory used (kb):      978692.
                   Average memory used (kb):           0.
  
                          Minor page faults:       106701
                          Major page faults:            6
                 Voluntary context switches:        47547
