       N       E                     dE             d eps       ncg     rms          rms(c)
DAV:   1     0.461544181660E+04    0.46154E+04   -0.31349E+05 10752   0.160E+03
DAV:   2    -0.702533267524E+03   -0.53180E+04   -0.51151E+04 13376   0.355E+02
DAV:   3    -0.127255603068E+04   -0.57002E+03   -0.56175E+03 12864   0.126E+02
DAV:   4    -0.129238586909E+04   -0.19830E+02   -0.19657E+02 14080   0.277E+01
DAV:   5    -0.129303930735E+04   -0.65344E+00   -0.65241E+00 15168   0.463E+00    0.894E+01
DAV:   6    -0.155825336903E+04   -0.26521E+03   -0.31712E+03 16928   0.101E+02    0.243E+02
DAV:   7    -0.146146388280E+04    0.96789E+02   -0.29275E+02 12352   0.315E+01    0.157E+02
DAV:   8    -0.117303402828E+04    0.28843E+03   -0.38605E+02 14880   0.773E+01    0.583E+01
DAV:   9    -0.117303035850E+04    0.36698E-02   -0.39186E+02 15936   0.739E+01    0.640E+01
DAV:  10    -0.115599650267E+04    0.17034E+02   -0.52477E+02 14464   0.222E+01    0.444E+01
DAV:  11    -0.118203571376E+04   -0.26039E+02   -0.47852E+02 15424   0.280E+01    0.584E+01
DAV:  12    -0.115529107480E+04    0.26745E+02   -0.14200E+02 15040   0.198E+01    0.243E+01
DAV:  13    -0.115771256717E+04   -0.24215E+01   -0.43242E+01 15744   0.172E+01    0.346E+01
DAV:  14    -0.115890203568E+04   -0.11895E+01   -0.79044E+01 15904   0.185E+01    0.297E+01
DAV:  15    -0.116359401838E+04   -0.46920E+01   -0.67854E+01 15264   0.955E+00    0.366E+01
DAV:  16    -0.116075613330E+04    0.28379E+01   -0.18064E+01 15648   0.685E+00    0.172E+01
DAV:  17    -0.116245074789E+04   -0.16946E+01   -0.10482E+00 13856   0.328E+00    0.147E+01
DAV:  18    -0.116564897846E+04   -0.31982E+01   -0.11510E+01 13824   0.440E+00    0.188E+01
DAV:  19    -0.116598492754E+04   -0.33595E+00   -0.49916E-01 14048   0.168E+00    0.163E+01
DAV:  20    -0.116602746279E+04   -0.42535E-01   -0.35429E+00 13536   0.298E+00    0.998E+00
DAV:  21    -0.116623525068E+04   -0.20779E+00   -0.19292E-01 13248   0.126E+00    0.949E+00
DAV:  22    -0.116666962960E+04   -0.43438E+00   -0.16589E+00 14144   0.287E+00    0.113E+01
DAV:  23    -0.116687851988E+04   -0.20889E+00   -0.65270E-01 14944   0.188E+00    0.106E+01
DAV:  24    -0.116692869012E+04   -0.50170E-01   -0.29573E-01 14592   0.125E+00    0.959E+00
DAV:  25    -0.116693648821E+04   -0.77981E-02   -0.28081E-01 14336   0.156E+00    0.767E+00
DAV:  26    -0.116687330995E+04    0.63178E-01   -0.88479E-01 14880   0.182E+00    0.392E+00
DAV:  27    -0.116687167843E+04    0.16315E-02   -0.57241E-01 14048   0.134E+00    0.339E+00
DAV:  28    -0.116687928528E+04   -0.76069E-02   -0.26974E-02 14048   0.532E-01    0.321E+00
DAV:  29    -0.116686893742E+04    0.10348E-01   -0.22376E-02 15744   0.104E+00    0.252E+00
DAV:  30    -0.116684786584E+04    0.21072E-01   -0.47285E-02 16224   0.140E+00    0.161E+00
DAV:  31    -0.116683997369E+04    0.78921E-02   -0.44745E-02 14048   0.587E-01    0.119E+00
DAV:  32    -0.116683359272E+04    0.63810E-02   -0.82771E-03 14944   0.429E-01    0.727E-01
DAV:  33    -0.116682824310E+04    0.53496E-02   -0.57583E-03 15392   0.364E-01    0.358E-01
DAV:  34    -0.116682832351E+04   -0.80409E-04   -0.36765E-03 14016   0.155E-01    0.374E-01
DAV:  35    -0.116682755394E+04    0.76958E-03   -0.74354E-04 15200   0.112E-01    0.341E-01
DAV:  36    -0.116682729055E+04    0.26339E-03   -0.92301E-04 16928   0.171E-01    0.224E-01
DAV:  37    -0.116682753251E+04   -0.24197E-03   -0.34347E-04 13088   0.452E-02    0.236E-01
DAV:  38    -0.116682756591E+04   -0.33393E-04   -0.58008E-05 14432   0.329E-02    0.191E-01
DAV:  39    -0.116682756214E+04    0.37634E-05   -0.31156E-04 15296   0.754E-02    0.110E-01
DAV:  40    -0.116682767308E+04   -0.11094E-03   -0.21145E-04 15168   0.479E-02    0.704E-02
DAV:  41    -0.116682778799E+04   -0.11491E-03   -0.14409E-04 15328   0.384E-02    0.495E-02
DAV:  42    -0.116682787899E+04   -0.90994E-04   -0.81805E-05 15104   0.279E-02    0.408E-02
DAV:  43    -0.116682792404E+04   -0.45049E-04   -0.27486E-05 14368   0.139E-02    0.343E-02
DAV:  44    -0.116682793647E+04   -0.12432E-04   -0.76215E-06 11904   0.128E-02    0.232E-02
DAV:  45    -0.116682794000E+04   -0.35295E-05   -0.93112E-06 11552   0.145E-02    0.240E-02
DAV:  46    -0.116682793924E+04    0.75712E-06   -0.73930E-06 11904   0.836E-03
   1 F= -.11806743E+04 E0= -.11806670E+04  d E =-.118067E+04  mag=     0.0214
