 vasp.5.4.4.18Apr17-6-g9f103f2a35 (build May 22 2020 17:00:04) complex          
  
 executed on           IFC15_impi date 2020.09.28  23:27:31
 running on  128 total cores
 distrk:  each k-point on  128 cores,    1 groups
 distr:  one band on NCORES_PER_BAND=   4 cores,   32 groups


--------------------------------------------------------------------------------------------------------


 INCAR:
 POTCAR:    PAW_PBE C 08Apr2002                   
 POTCAR:    PAW_PBE Co 02Aug2007                  
 POTCAR:    PAW_PBE H 15Jun2001                   
 POTCAR:    PAW_PBE N 08Apr2002                   
 POTCAR:    PAW_PBE O 08Apr2002                   

 ----------------------------------------------------------------------------- 
|                                                                             |
|           W    W    AA    RRRRR   N    N  II  N    N   GGGG   !!!           |
|           W    W   A  A   R    R  NN   N  II  NN   N  G    G  !!!           |
|           W    W  A    A  R    R  N N  N  II  N N  N  G       !!!           |
|           W WW W  AAAAAA  RRRRR   N  N N  II  N  N N  G  GGG   !            |
|           WW  WW  A    A  R   R   N   NN  II  N   NN  G    G                |
|           W    W  A    A  R    R  N    N  II  N    N   GGGG   !!!           |
|                                                                             |
|      For optimal performance we recommend to set                            |
|        NCORE= 4 - approx SQRT( number of cores)                             |
|      NCORE specifies how many cores store one orbital (NPAR=cpu/NCORE).     |
|      This setting can  greatly improve the performance of VASP for DFT.     |
|      The default,   NCORE=1            might be grossly inefficient         |
|      on modern multi-core architectures or massively parallel machines.     |
|      Do your own testing !!!!                                               |
|      Unfortunately you need to use the default for GW and RPA calculations. |
|      (for HF NCORE is supported but not extensively tested yet)             |
|                                                                             |
 ----------------------------------------------------------------------------- 

 POTCAR:    PAW_PBE C 08Apr2002                   
   VRHFIN =C: s2p2                                                              
   LEXCH  = PE                                                                  
   EATOM  =   147.1560 eV,   10.8157 Ry                                         
                                                                                
   TITEL  = PAW_PBE C 08Apr2002                                                 
   LULTRA =        F    use ultrasoft PP ?                                      
   IUNSCR =        1    unscreen: 0-lin 1-nonlin 2-no                           
   RPACOR =    1.200    partial core radius                                     
   POMASS =   12.011; ZVAL   =    4.000    mass and valenz                      
   RCORE  =    1.500    outmost cutoff radius                                   
   RWIGS  =    1.630; RWIGS  =    0.863    wigner-seitz radius (au A)           
   ENMAX  =  400.000; ENMIN  =  300.000 eV                                      
   ICORE  =        2    local potential                                         
   LCOR   =        T    correct aug charges                                     
   LPAW   =        T    paw PP                                                  
   EAUG   =  644.873                                                            
   DEXC   =    0.000                                                            
   RMAX   =    1.529    core radius for proj-oper                               
   RAUG   =    1.300    factor for augmentation sphere                          
   RDEP   =    1.501    radius for radial grids                                 
   RDEPT  =    1.300    core radius for aug-charge                              
                                                                                
   Atomic configuration                                                         
    4 entries                                                                   
     n  l   j            E        occ.                                          
     1  0  0.50      -273.3789   2.0000                                         
     2  0  0.50       -13.7508   2.0000                                         
     2  1  0.50        -5.2854   2.0000                                         
     3  2  1.50        -5.4423   0.0000                                         
   Description                                                                  
     l       E           TYP  RCUT    TYP  RCUT                                 
     0    -13.7508458     23  1.200                                             
     0     -8.2022199     23  1.200                                             
     1     -5.2854383     23  1.500                                             
     1     34.0145650     23  1.500                                             
     2     -5.4423304      7  1.500                                             
  local pseudopotential read in
  partial core-charges read in
  partial kinetic energy density read in
  atomic valenz-charges read in
  non local Contribution for L=           0  read in
    real space projection operators read in
  non local Contribution for L=           0  read in
    real space projection operators read in
  non local Contribution for L=           1  read in
    real space projection operators read in
  non local Contribution for L=           1  read in
    real space projection operators read in
    PAW grid and wavefunctions read in
 
   number of l-projection  operators is LMAX  =           4
   number of lm-projection operators is LMMAX =           8
 
 POTCAR:    PAW_PBE Co 02Aug2007                  
   VRHFIN =Co: d8 s1                                                            
   LEXCH  = PE                                                                  
   EATOM  =   813.3670 eV,   59.7808 Ry                                         
                                                                                
   TITEL  = PAW_PBE Co 02Aug2007                                                
   LULTRA =        F    use ultrasoft PP ?                                      
   IUNSCR =        1    unscreen: 0-lin 1-nonlin 2-no                           
   RPACOR =    2.000    partial core radius                                     
   POMASS =   58.933; ZVAL   =    9.000    mass and valenz                      
   RCORE  =    2.300    outmost cutoff radius                                   
   RWIGS  =    2.460; RWIGS  =    1.302    wigner-seitz radius (au A)           
   ENMAX  =  267.968; ENMIN  =  200.976 eV                                      
   RCLOC  =    1.203    cutoff for local pot                                    
   LCOR   =        T    correct aug charges                                     
   LPAW   =        T    paw PP                                                  
   EAUG   =  477.818                                                            
   DEXC   =    0.000                                                            
   RMAX   =    2.360    core radius for proj-oper                               
   RAUG   =    1.300    factor for augmentation sphere                          
   RDEP   =    2.393    radius for radial grids                                 
   RDEPT  =    1.864    core radius for aug-charge                              
                                                                                
   Atomic configuration                                                         
    9 entries                                                                   
     n  l   j            E        occ.                                          
     1  0  0.50     -7587.6674   2.0000                                         
     2  0  0.50      -893.6084   2.0000                                         
     2  1  1.50      -764.5805   6.0000                                         
     3  0  0.50       -97.5973   2.0000                                         
     3  1  1.50       -60.9648   6.0000                                         
     3  2  2.50        -4.2382   8.0000                                         
     4  0  0.50        -4.3746   1.0000                                         
     4  1  1.50        -4.0817   0.0000                                         
     4  3  2.50        -1.3606   0.0000                                         
   Description                                                                  
     l       E           TYP  RCUT    TYP  RCUT                                 
     2     -4.2382362     23  2.300                                             
     2     -5.5988188     23  2.300                                             
     0     -4.3745797     23  2.300                                             
     0      5.7660125     23  2.300                                             
     1     -2.7211652     23  2.300                                             
     1     16.9860234     23  2.300                                             
  local pseudopotential read in
  partial core-charges read in
  partial kinetic energy density read in
  atomic valenz-charges read in
  non local Contribution for L=           2  read in
    real space projection operators read in
  non local Contribution for L=           2  read in
    real space projection operators read in
  non local Contribution for L=           0  read in
    real space projection operators read in
  non local Contribution for L=           0  read in
    real space projection operators read in
  non local Contribution for L=           1  read in
    real space projection operators read in
  non local Contribution for L=           1  read in
    real space projection operators read in
    PAW grid and wavefunctions read in
 
   number of l-projection  operators is LMAX  =           6
   number of lm-projection operators is LMMAX =          18
 
 POTCAR:    PAW_PBE H 15Jun2001                   
   VRHFIN =H: ultrasoft test                                                    
   LEXCH  = PE                                                                  
   EATOM  =    12.4884 eV,    0.9179 Ry                                         
                                                                                
   TITEL  = PAW_PBE H 15Jun2001                                                 
   LULTRA =        F    use ultrasoft PP ?                                      
   IUNSCR =        0    unscreen: 0-lin 1-nonlin 2-no                           
   RPACOR =    0.000    partial core radius                                     
   POMASS =    1.000; ZVAL   =    1.000    mass and valenz                      
   RCORE  =    1.100    outmost cutoff radius                                   
   RWIGS  =    0.700; RWIGS  =    0.370    wigner-seitz radius (au A)           
   ENMAX  =  250.000; ENMIN  =  200.000 eV                                      
   RCLOC  =    0.701    cutoff for local pot                                    
   LCOR   =        T    correct aug charges                                     
   LPAW   =        T    paw PP                                                  
   EAUG   =  400.000                                                            
   RMAX   =    1.123    core radius for proj-oper                               
   RAUG   =    1.200    factor for augmentation sphere                          
   RDEP   =    1.112    radius for radial grids                                 
   RDEPT  =    0.926    core radius for aug-charge                              
                                                                                
   Atomic configuration                                                         
    2 entries                                                                   
     n  l   j            E        occ.                                          
     1  0  0.50        -6.4927   1.0000                                         
     2  1  0.50        -3.4015   0.0000                                         
   Description                                                                  
     l       E           TYP  RCUT    TYP  RCUT                                 
     0     -6.4927494     23  1.100                                             
     0      6.8029130     23  1.100                                             
     1     -4.0817478     23  1.100                                             
  local pseudopotential read in
  atomic valenz-charges read in
  non local Contribution for L=           0  read in
    real space projection operators read in
  non local Contribution for L=           0  read in
    real space projection operators read in
  non local Contribution for L=           1  read in
    real space projection operators read in
    PAW grid and wavefunctions read in
 
   number of l-projection  operators is LMAX  =           3
   number of lm-projection operators is LMMAX =           5
 
 POTCAR:    PAW_PBE N 08Apr2002                   
   VRHFIN =N: s2p3                                                              
   LEXCH  = PE                                                                  
   EATOM  =   264.5486 eV,   19.4438 Ry                                         
                                                                                
   TITEL  = PAW_PBE N 08Apr2002                                                 
   LULTRA =        F    use ultrasoft PP ?                                      
   IUNSCR =        1    unscreen: 0-lin 1-nonlin 2-no                           
   RPACOR =    1.200    partial core radius                                     
   POMASS =   14.001; ZVAL   =    5.000    mass and valenz                      
   RCORE  =    1.500    outmost cutoff radius                                   
   RWIGS  =    1.400; RWIGS  =    0.741    wigner-seitz radius (au A)           
   ENMAX  =  400.000; ENMIN  =  300.000 eV                                      
   ICORE  =        2    local potential                                         
   LCOR   =        T    correct aug charges                                     
   LPAW   =        T    paw PP                                                  
   EAUG   =  627.112                                                            
   DEXC   =    0.000                                                            
   RMAX   =    1.529    core radius for proj-oper                               
   RAUG   =    1.300    factor for augmentation sphere                          
   RDEP   =    1.514    radius for radial grids                                 
   RDEPT  =    1.338    core radius for aug-charge                              
                                                                                
   Atomic configuration                                                         
    4 entries                                                                   
     n  l   j            E        occ.                                          
     1  0  0.50      -384.7179   2.0000                                         
     2  0  0.50       -18.5828   2.0000                                         
     2  1  0.50        -7.0898   3.0000                                         
     3  2  1.50        -6.8029   0.0000                                         
   Description                                                                  
     l       E           TYP  RCUT    TYP  RCUT                                 
     0    -18.5828119     23  1.200                                             
     0    -13.5018863     23  1.200                                             
     1     -7.0897853     23  1.500                                             
     1      9.5240782     23  1.500                                             
     2     -6.8029130      7  1.500                                             
  local pseudopotential read in
  partial core-charges read in
  partial kinetic energy density read in
  atomic valenz-charges read in
  non local Contribution for L=           0  read in
    real space projection operators read in
  non local Contribution for L=           0  read in
    real space projection operators read in
  non local Contribution for L=           1  read in
    real space projection operators read in
  non local Contribution for L=           1  read in
    real space projection operators read in
    PAW grid and wavefunctions read in
 
   number of l-projection  operators is LMAX  =           4
   number of lm-projection operators is LMMAX =           8
 
 POTCAR:    PAW_PBE O 08Apr2002                   
   VRHFIN =O: s2p4                                                              
   LEXCH  = PE                                                                  
   EATOM  =   432.3788 eV,   31.7789 Ry                                         
                                                                                
   TITEL  = PAW_PBE O 08Apr2002                                                 
   LULTRA =        F    use ultrasoft PP ?                                      
   IUNSCR =        1    unscreen: 0-lin 1-nonlin 2-no                           
   RPACOR =    1.200    partial core radius                                     
   POMASS =   16.000; ZVAL   =    6.000    mass and valenz                      
   RCORE  =    1.520    outmost cutoff radius                                   
   RWIGS  =    1.550; RWIGS  =    0.820    wigner-seitz radius (au A)           
   ENMAX  =  400.000; ENMIN  =  300.000 eV                                      
   ICORE  =        2    local potential                                         
   LCOR   =        T    correct aug charges                                     
   LPAW   =        T    paw PP                                                  
   EAUG   =  605.392                                                            
   DEXC   =    0.000                                                            
   RMAX   =    1.553    core radius for proj-oper                               
   RAUG   =    1.300    factor for augmentation sphere                          
   RDEP   =    1.550    radius for radial grids                                 
   RDEPT  =    1.329    core radius for aug-charge                              
                                                                                
   Atomic configuration                                                         
    4 entries                                                                   
     n  l   j            E        occ.                                          
     1  0  0.50      -514.6923   2.0000                                         
     2  0  0.50       -23.9615   2.0000                                         
     2  1  0.50        -9.0305   4.0000                                         
     3  2  1.50        -9.5241   0.0000                                         
   Description                                                                  
     l       E           TYP  RCUT    TYP  RCUT                                 
     0    -23.9615318     23  1.200                                             
     0     -9.5240782     23  1.200                                             
     1     -9.0304911     23  1.520                                             
     1      8.1634956     23  1.520                                             
     2     -9.5240782      7  1.500                                             
  local pseudopotential read in
  partial core-charges read in
  partial kinetic energy density read in
  kinetic energy density of atom read in
  atomic valenz-charges read in
  non local Contribution for L=           0  read in
    real space projection operators read in
  non local Contribution for L=           0  read in
    real space projection operators read in
  non local Contribution for L=           1  read in
    real space projection operators read in
  non local Contribution for L=           1  read in
    real space projection operators read in
    PAW grid and wavefunctions read in
 
   number of l-projection  operators is LMAX  =           4
   number of lm-projection operators is LMMAX =           8
 
 Optimization of the real space projectors (new method)

 maximal supplied QI-value         = 25.13
 optimisation between [QCUT,QGAM] = [ 12.32, 24.88] = [ 42.47,173.37] Ry 
 Optimized for a Real-space Cutoff    1.06 Angstroem

   l    n(q)    QCUT    max X(q) W(low)/X(q) W(high)/X(q)  e(spline) 
   0      8    12.315   115.676    0.34E-03    0.18E-03    0.23E-06
   0      8    12.315    87.132    0.34E-03    0.18E-03    0.22E-06
   1      7    12.315     4.429    0.45E-03    0.12E-03    0.18E-06
   1      7    12.315     2.733    0.35E-03    0.97E-04    0.15E-06
 Optimization of the real space projectors (new method)

 maximal supplied QI-value         = 16.25
 optimisation between [QCUT,QGAM] = [ 12.51, 25.03] = [ 43.85,175.40] Ry 
 Optimized for a Real-space Cutoff    1.31 Angstroem

   l    n(q)    QCUT    max X(q) W(low)/X(q) W(high)/X(q)  e(spline) 
   2      9    12.514    65.824    0.30E-03    0.46E-03    0.43E-06
   2      9    12.514    61.429    0.31E-03    0.46E-03    0.44E-06
   0     10    12.514    56.174    0.90E-04    0.33E-03    0.30E-06
   0     10    12.514    31.263    0.81E-04    0.30E-03    0.28E-06
   1      9    12.514    19.828    0.38E-03    0.65E-04    0.24E-06
   1      9    12.514    15.139    0.32E-03    0.60E-04    0.20E-06
 Optimization of the real space projectors (new method)

 maximal supplied QI-value         = 34.20
 optimisation between [QCUT,QGAM] = [ 12.31, 24.97] = [ 42.46,174.58] Ry 
 Optimized for a Real-space Cutoff    1.00 Angstroem

   l    n(q)    QCUT    max X(q) W(low)/X(q) W(high)/X(q)  e(spline) 
   0      7    12.313    19.460    0.14E-03    0.42E-03    0.16E-06
   0      7    12.313    12.209    0.12E-03    0.40E-03    0.16E-06
   1      7    12.313     4.655    0.33E-03    0.59E-03    0.89E-07
 Optimization of the real space projectors (new method)

 maximal supplied QI-value         = 25.13
 optimisation between [QCUT,QGAM] = [ 12.32, 24.88] = [ 42.47,173.37] Ry 
 Optimized for a Real-space Cutoff    1.20 Angstroem

   l    n(q)    QCUT    max X(q) W(low)/X(q) W(high)/X(q)  e(spline) 
   0      9    12.315    79.467    0.14E-03    0.22E-04    0.37E-06
   0      9    12.315    66.151    0.14E-03    0.23E-04    0.36E-06
   1      8    12.315    22.077    0.30E-03    0.54E-03    0.45E-06
   1      8    12.315    15.894    0.30E-03    0.55E-03    0.45E-06
 Optimization of the real space projectors (new method)

 maximal supplied QI-value         = 24.76
 optimisation between [QCUT,QGAM] = [ 12.38, 25.00] = [ 42.90,175.06] Ry 
 Optimized for a Real-space Cutoff    1.13 Angstroem

   l    n(q)    QCUT    max X(q) W(low)/X(q) W(high)/X(q)  e(spline) 
   0      8    12.378    20.381    0.16E-03    0.54E-05    0.27E-06
   0      8    12.378    15.268    0.17E-03    0.61E-05    0.29E-06
   1      8    12.378     5.964    0.38E-03    0.23E-03    0.28E-06
   1      8    12.378     5.382    0.33E-03    0.20E-03    0.25E-06
  PAW_PBE C 08Apr2002                   :
 energy of atom  1       EATOM= -147.1560
 kinetic energy error for atom=    0.0057 (will be added to EATOM!!)
  PAW_PBE Co 02Aug2007                  :
 energy of atom  2       EATOM= -813.3670
 kinetic energy error for atom=    0.0018 (will be added to EATOM!!)
  PAW_PBE H 15Jun2001                   :
 energy of atom  3       EATOM=  -12.4884
 kinetic energy error for atom=    0.0004 (will be added to EATOM!!)
  PAW_PBE N 08Apr2002                   :
 energy of atom  4       EATOM= -264.5486
 kinetic energy error for atom=    0.0103 (will be added to EATOM!!)
  PAW_PBE O 08Apr2002                   :
 energy of atom  5       EATOM= -432.3788
 kinetic energy error for atom=    0.0168 (will be added to EATOM!!)
 
 
 POSCAR: CoH_middle                              
  positions in direct lattice
  velocities in cartesian coordinates
 exchange correlation table for  LEXCH =        8
   RHO(1)=    0.500       N(1)  =     2000
   RHO(2)=  100.500       N(2)  =     4000
 


--------------------------------------------------------------------------------------------------------


 ion  position               nearest neighbor table
   1  0.893  0.957  0.150- 107 1.08 117 1.34  65 1.40
   2  0.766  0.951  0.434- 112 1.09 118 1.36  65 1.40
   3  0.894  0.799  0.897- 116 1.08 119 1.34  66 1.40
   4  0.607  0.457  0.648- 110 1.08 120 1.34  67 1.40
   5  0.733  0.304  0.111- 111 1.09 121 1.36  68 1.40
   6  0.229  0.804  0.112- 115 1.09 122 1.36  69 1.40
   7  0.734  0.451  0.933- 101 1.09 123 1.36  67 1.40
   8  0.606  0.298  0.395- 113 1.08 124 1.34  68 1.40
   9  0.271  0.452  0.433- 114 1.09 125 1.36  70 1.40
  10  0.102  0.799  0.397- 104 1.08 126 1.34  69 1.40
  11  0.229  0.952  0.934- 105 1.09 127 1.36  71 1.40
  12  0.270  0.304  0.611- 102 1.09 128 1.36  72 1.40
  13  0.767  0.804  0.612- 108 1.09 129 1.36  66 1.40
  14  0.102  0.957  0.650- 109 1.08 130 1.34  71 1.40
  15  0.398  0.299  0.895- 106 1.08 131 1.34  72 1.40
  16  0.398  0.457  0.148- 103 1.08 132 1.34  70 1.40
  17  0.688  0.032  0.138- 141 1.23 133 1.42  33 1.48
  18  0.828  0.050  0.471- 142 1.23 133 1.41  34 1.48
  19  0.829  0.706  0.575- 143 1.23 134 1.41  35 1.48
  20  0.672  0.550  0.969- 144 1.23 135 1.41  36 1.48
  21  0.671  0.206  0.075- 145 1.23 136 1.41  37 1.48
  22  0.309  0.724  0.409- 146 1.23 137 1.42  38 1.48
  23  0.812  0.532  0.636- 147 1.23 135 1.42  39 1.48
  24  0.811  0.223  0.408- 148 1.23 136 1.42  40 1.48
  25  0.193  0.532  0.135- 149 1.23 138 1.42  41 1.48
  26  0.169  0.706  0.076- 150 1.23 137 1.41  42 1.48
  27  0.168  0.050  0.970- 151 1.23 139 1.41  43 1.48
  28  0.331  0.206  0.575- 152 1.23 140 1.41  44 1.48
  29  0.689  0.723  0.909- 153 1.23 134 1.42  45 1.48
  30  0.307  0.032  0.636- 154 1.23 139 1.42  46 1.48
  31  0.191  0.224  0.909- 155 1.23 140 1.42  47 1.48
  32  0.332  0.550  0.469- 156 1.23 138 1.41  48 1.48
  33  0.687  0.077  0.124-  49 1.39  73 1.41  17 1.48
  34  0.817  0.094  0.455-  50 1.39  73 1.41  18 1.48
  35  0.818  0.661  0.591-  51 1.39  74 1.41  19 1.48
  36  0.683  0.594  0.954-  52 1.39  75 1.41  20 1.48
  37  0.681  0.161  0.091-  53 1.39  76 1.41  21 1.48
  38  0.311  0.679  0.423-  54 1.39  77 1.41  22 1.48
  39  0.813  0.577  0.622-  55 1.39  75 1.41  23 1.48
  40  0.812  0.179  0.422-  56 1.39  76 1.41  24 1.48
  41  0.190  0.577  0.121-  57 1.39  78 1.41  25 1.48
  42  0.181  0.662  0.090-  58 1.39  77 1.41  26 1.48
  43  0.180  0.094  0.955-  59 1.39  79 1.41  27 1.48
  44  0.318  0.161  0.590-  60 1.39  80 1.41  28 1.48
  45  0.688  0.679  0.922-  61 1.39  74 1.41  29 1.48
  46  0.310  0.077  0.622-  62 1.39  79 1.41  30 1.48
  47  0.189  0.179  0.922-  63 1.39  80 1.41  31 1.48
  48  0.320  0.594  0.454-  64 1.39  78 1.41  32 1.48
  49  0.623  0.090  0.953-  88 1.09  33 1.39  53 1.40
  50  0.878  0.124  0.609-  99 1.09  34 1.39  56 1.40
  51  0.880  0.632  0.436-  93 1.09  35 1.39  55 1.40
  52  0.622  0.624  0.109-  90 1.09  36 1.39  61 1.40
  53  0.620  0.132  0.937-  98 1.09  37 1.39  49 1.40
  54  0.375  0.666  0.593-  96 1.09  38 1.39  64 1.40
  55  0.876  0.590  0.452-  86 1.09  39 1.39  51 1.40
  56  0.875  0.166  0.593-  87 1.09  40 1.39  50 1.40
  57  0.127  0.589  0.951-  95 1.09  41 1.39  58 1.40
  58  0.122  0.632  0.936-  91 1.09  42 1.39  57 1.40
  59  0.120  0.124  0.109-  92 1.09  43 1.39  63 1.40
  60  0.378  0.131  0.436-  85 1.09  44 1.39  62 1.40
  61  0.625  0.666  0.093-  89 1.09  45 1.39  52 1.40
  62  0.373  0.089  0.451- 100 1.09  46 1.39  60 1.40
  63  0.125  0.166  0.093-  94 1.09  47 1.39  59 1.40
  64  0.380  0.624  0.608-  97 1.09  48 1.39  54 1.40
  65  0.798  0.979  0.300-   1 1.40   2 1.40 133 1.42
  66  0.798  0.777  0.746-   3 1.40  13 1.40 134 1.42
  67  0.702  0.479  0.799-   4 1.40   7 1.40 135 1.42
  68  0.701  0.277  0.245-   8 1.40   5 1.40 136 1.42
  69  0.198  0.777  0.246-  10 1.40   6 1.40 137 1.42
  70  0.303  0.479  0.299-  16 1.40   9 1.40 138 1.42
  71  0.197  0.979  0.800-  14 1.40  11 1.40 139 1.42
  72  0.302  0.277  0.745-  15 1.40  12 1.40 140 1.42
  73  0.750  0.107  0.282-  34 1.41  33 1.41  76 1.42
  74  0.752  0.649  0.764-  45 1.41  35 1.41  75 1.42
  75  0.749  0.606  0.781-  36 1.41  39 1.41  74 1.42
  76  0.748  0.149  0.264-  40 1.41  37 1.41  73 1.42
  77  0.249  0.649  0.264-  38 1.41  42 1.41  78 1.42
  78  0.253  0.607  0.280-  41 1.41  48 1.41  77 1.42
  79  0.247  0.107  0.781-  46 1.41  43 1.41  80 1.42
  80  0.251  0.149  0.764-  47 1.41  44 1.41  79 1.42
  81  0.049  0.878  0.023- 119 1.96 117 1.96 127 1.97 122 1.97
  82  0.946  0.878  0.523- 130 1.96 126 1.96 118 1.97 129 1.97
  83  0.450  0.378  0.522- 124 1.96 120 1.96 125 1.97 128 1.97
  84  0.553  0.378  0.022- 131 1.96 132 1.96 123 1.97 121 1.97
  85  0.429  0.141  0.303-  60 1.09
  86  0.922  0.566  0.331-  55 1.09
  87  0.920  0.190  0.714-  56 1.09
  88  0.578  0.066  0.832-  49 1.09
  89  0.580  0.690  0.214-  61 1.09
  90  0.572  0.614  0.241-  52 1.09
  91  0.071  0.642  0.803-  58 1.09
  92  0.070  0.114  0.242-  59 1.09
  93  0.930  0.642  0.304-  51 1.09
  94  0.081  0.190  0.214-  63 1.09
  95  0.083  0.566  0.829-  57 1.09
  96  0.419  0.690  0.715-  54 1.09
  97  0.430  0.614  0.741-  64 1.09
  98  0.570  0.142  0.804-  53 1.09
  99  0.928  0.114  0.742-  50 1.09
 100  0.417  0.066  0.330-  62 1.09
 101  0.800  0.456  0.073-   7 1.09
 102  0.204  0.300  0.471-  12 1.09
 103  0.448  0.468  0.017-  16 1.08
 104  0.052  0.788  0.528-  10 1.08
 105  0.295  0.956  0.075-  11 1.09
 106  0.448  0.288  0.026-  15 1.08
 107  0.943  0.968  0.019-   1 1.08
 108  0.700  0.800  0.472-  13 1.09
 109  0.051  0.968  0.519-  14 1.08
 110  0.557  0.468  0.517-   4 1.08
 111  0.800  0.300  0.971-   5 1.09
 112  0.699  0.956  0.574-   2 1.09
 113  0.555  0.288  0.526-   8 1.08
 114  0.205  0.456  0.573-   9 1.09
 115  0.296  0.800  0.972-   6 1.09
 116  0.944  0.788  0.027-   3 1.08
 117  0.919  0.919  0.192-   1 1.34 118 1.38  81 1.96
 118  0.841  0.915  0.367-   2 1.36 117 1.38  82 1.97
 119  0.920  0.836  0.855-   3 1.34 129 1.38  81 1.96
 120  0.580  0.419  0.690-   4 1.34 123 1.38  83 1.96
 121  0.658  0.340  0.178-   5 1.36 124 1.38  84 1.97
 122  0.154  0.841  0.180-   6 1.36 126 1.38  81 1.97
 123  0.659  0.415  0.866-   7 1.36 120 1.38  84 1.97
 124  0.580  0.336  0.353-   8 1.34 121 1.38  83 1.96
 125  0.346  0.415  0.366-   9 1.36 132 1.38  83 1.97
 126  0.076  0.837  0.355-  10 1.34 122 1.38  82 1.96
 127  0.154  0.915  0.867-  11 1.36 130 1.38  81 1.97
 128  0.345  0.340  0.678-  12 1.36 131 1.38  83 1.97
 129  0.841  0.840  0.680-  13 1.36 119 1.38  82 1.97
 130  0.075  0.919  0.692-  14 1.34 127 1.38  82 1.96
 131  0.424  0.336  0.853-  15 1.34 128 1.38  84 1.96
 132  0.424  0.419  0.190-  16 1.34 125 1.38  84 1.96
 133  0.761  0.021  0.311-  18 1.41  17 1.42  65 1.42
 134  0.763  0.734  0.736-  19 1.41  29 1.42  66 1.42
 135  0.738  0.521  0.809-  20 1.41  23 1.42  67 1.42
 136  0.737  0.234  0.235-  21 1.41  24 1.42  68 1.42
 137  0.234  0.734  0.236-  26 1.41  22 1.42  69 1.42
 138  0.267  0.521  0.308-  32 1.41  25 1.42  70 1.42
 139  0.233  0.021  0.809-  27 1.41  30 1.42  71 1.42
 140  0.265  0.234  0.736-  28 1.41  31 1.42  72 1.42
 141  0.630  0.006  0.006-  17 1.23
 142  0.892  0.038  0.615-  18 1.23
 143  0.894  0.718  0.432-  19 1.23
 144  0.607  0.538  0.113-  20 1.23
 145  0.606  0.218  0.931-  21 1.23
 146  0.366  0.750  0.541-  22 1.23
 147  0.870  0.506  0.504-  23 1.23
 148  0.869  0.250  0.540-  24 1.23
 149  0.136  0.506  0.003-  25 1.23
 150  0.103  0.718  0.932-  26 1.23
 151  0.103  0.038  0.114-  27 1.23
 152  0.396  0.217  0.431-  28 1.23
 153  0.631  0.750  0.041-  29 1.23
 154  0.364  0.006  0.504-  30 1.23
 155  0.134  0.250  0.041-  31 1.23
 156  0.397  0.538  0.613-  32 1.23
 

IMPORTANT INFORMATION: All symmetrisations will be switched off!
NOSYMM: (Re-)initialisation of all symmetry stuff for point group C_1.

 
 

Automatic generation of k-mesh.
 generate k-points for:    3    1    4
Space group operators:
 irot       det(A)        alpha          n_x          n_y          n_z        tau_x        tau_y        tau_z
    1     1.000000     0.000000     1.000000     0.000000     0.000000     0.000000     0.000000     0.000000
 
 Subroutine IBZKPT returns following result:
 ===========================================
 
 Found      7 irreducible k-points:
 
 Following reciprocal coordinates:
            Coordinates               Weight
  0.000000  0.000000  0.000000      1.000000
  0.333333 -0.000000  0.000000      2.000000
 -0.000000  0.000000  0.250000      2.000000
  0.333333  0.000000  0.250000      2.000000
 -0.333333 -0.000000  0.250000      2.000000
 -0.000000  0.000000  0.500000      1.000000
  0.333333  0.000000  0.500000      2.000000
 
 Following cartesian coordinates:
            Coordinates               Weight
  0.000000  0.000000  0.000000      1.000000
  0.038144  0.000000  0.000003      2.000000
  0.000008  0.003338  0.038068      2.000000
  0.038152  0.003338  0.038071      2.000000
 -0.038136  0.003338  0.038064      2.000000
  0.000016  0.006677  0.076136      1.000000
  0.038160  0.006677  0.076139      2.000000
 


--------------------------------------------------------------------------------------------------------




 Dimension of arrays:
   k-points           NKPTS =      7   k-points in BZ     NKDIM =      7   number of bands    NBANDS=    384
   number of dos      NEDOS =    301   number of ions     NIONS =    156
   non local maximal  LDIM  =      6   non local SUM 2l+1 LMDIM =     18
   total plane-waves  NPLWV = 432000
   max r-space proj   IRMAX =   2203   max aug-charges    IRDMAX=   9284
   dimension x,y,z NGX =    54 NGY =  200 NGZ =   40
   dimension x,y,z NGXF=   108 NGYF=  400 NGZF=   80
   support grid    NGXF=   108 NGYF=  400 NGZF=   80
   ions per type =              80   4  32  24  16
   NGX,Y,Z   is equivalent  to a cutoff of  10.27, 10.14, 10.01 a.u.
   NGXF,Y,Z  is equivalent  to a cutoff of  20.55, 20.27, 20.02 a.u.

 SYSTEM =  flex_MOF                                
 POSCAR =  CoH_middle                              

 Startparameter for this run:
   NWRITE =      2    write-flag & timer
   PREC   = normal    normal or accurate (medium, high low for compatibility)
   ISTART =      0    job   : 0-new  1-cont  2-samecut
   ICHARG =      2    charge: 1-file 2-atom 10-const
   ISPIN  =      2    spin polarized calculation?
   LNONCOLLINEAR =      F non collinear calculations
   LSORBIT =      F    spin-orbit coupling
   INIWAV =      1    electr: 0-lowe 1-rand  2-diag
   LASPH  =      F    aspherical Exc in radial PAW
   METAGGA=      F    non-selfconsistent MetaGGA calc.

 Electronic Relaxation 1
   ENCUT  =  600.0 eV  44.10 Ry    6.64 a.u.  17.45 65.51 13.27*2*pi/ulx,y,z
   ENINI  =  600.0     initial cutoff
   ENAUG  =  644.9 eV  augmentation charge cutoff
   NELM   =     80;   NELMIN=  8; NELMDL= -5     # of ELM steps 
   EDIFF  = 0.1E-05   stopping-criterion for ELM
   LREAL  =      T    real-space projection
   NLSPLINE    = F    spline interpolate recip. space projectors
   LCOMPAT=      F    compatible to vasp.4.4
   GGA_COMPAT  = T    GGA compatible to vasp.4.4-vasp.4.6
   LMAXPAW     = -100 max onsite density
   LMAXMIX     =    2 max onsite mixed and CHGCAR
   VOSKOWN=      0    Vosko Wilk Nusair interpolation
   ROPT   =   -0.00050  -0.00050  -0.00050  -0.00050
   ROPT   =   -0.00050
 Ionic relaxation
   EDIFFG = -.1E-01   stopping-criterion for IOM
   NSW    =    500    number of steps for IOM
   NBLOCK =      1;   KBLOCK =    500    inner block; outer block 
   IBRION =      2    ionic relax: 0-MD 1-quasi-New 2-CG
   NFREE  =      1    steps in history (QN), initial steepest desc. (CG)
   ISIF   =      4    stress and relaxation
   IWAVPR =     11    prediction:  0-non 1-charg 2-wave 3-comb
   ISYM   =      0    0-nonsym 1-usesym 2-fastsym
   LCORR  =      T    Harris-Foulkes like correction to forces

   POTIM  = 0.5000    time-step for ionic-motion
   TEIN   =    0.0    initial temperature
   TEBEG  =    0.0;   TEEND  =   0.0 temperature during run
   SMASS  =  -3.00    Nose mass-parameter (am)
   estimated Nose-frequenzy (Omega)   =  0.10E-29 period in steps =****** mass=  -0.175E-26a.u.
   SCALEE = 1.0000    scale energy and forces
   NPACO  =    256;   APACO  = 16.0  distance and # of slots for P.C.
   PSTRESS=    0.0 pullay stress

  Mass of Ions in am
   POMASS =  12.01 58.93  1.00 14.00 16.00
  Ionic Valenz
   ZVAL   =   4.00  9.00  1.00  5.00  6.00
  Atomic Wigner-Seitz radii
   RWIGS  =  -1.00 -1.00 -1.00 -1.00 -1.00
  virtual crystal weights 
   VCA    =   1.00  1.00  1.00  1.00  1.00
   NELECT =     604.0000    total number of electrons
   NUPDOWN=      -1.0000    fix difference up-down

 DOS related values:
   EMIN   =  10.00;   EMAX   =-10.00  energy-range for DOS
   EFERMI =   0.00
   ISMEAR =     0;   SIGMA  =   0.05  broadening in eV -4-tet -1-fermi 0-gaus

 Electronic relaxation 2 (details)
   IALGO  =     38    algorithm
   LDIAG  =      T    sub-space diagonalisation (order eigenvalues)
   LSUBROT=      F    optimize rotation matrix (better conditioning)
   TURBO    =      0    0=normal 1=particle mesh
   IRESTART =      0    0=no restart 2=restart with 2 vectors
   NREBOOT  =      0    no. of reboots
   NMIN     =      0    reboot dimension
   EREF     =   0.00    reference energy to select bands
   IMIX   =      4    mixing-type and parameters
     AMIX     =   0.40;   BMIX     =  1.00
     AMIX_MAG =   1.60;   BMIX_MAG =  1.00
     AMIN     =   0.10
     WC   =   100.;   INIMIX=   1;  MIXPRE=   1;  MAXMIX= -45

 Intra band minimization:
   WEIMIN = 0.0010     energy-eigenvalue tresh-hold
   EBREAK =  0.65E-09  absolut break condition
   DEPER  =   0.30     relativ break condition  

   TIME   =   0.40     timestep for ELM

  volume/ion in A,a.u.               =      12.02        81.12
  Fermi-wavevector in a.u.,A,eV,Ry     =   1.122198  2.120647 17.134215  1.259329
  Thomas-Fermi vector in A             =   2.258857
 
 Write flags
   LWAVE        =      T    write WAVECAR
   LDOWNSAMPLE  =      F    k-point downsampling of WAVECAR
   LCHARG       =      T    write CHGCAR
   LVTOT        =      F    write LOCPOT, total local potential
   LVHAR        =      F    write LOCPOT, Hartree potential only
   LELF         =      F    write electronic localiz. function (ELF)
   LORBIT       =     11    0 simple, 1 ext, 2 COOP (PROOUT), +10 PAW based schemes


 Dipole corrections
   LMONO  =      F    monopole corrections only (constant potential shift)
   LDIPOL =      F    correct potential (dipole corrections)
   IDIPOL =      0    1-x, 2-y, 3-z, 4-all directions 
   EPSILON=  1.0000000 bulk dielectric constant

 Exchange correlation treatment:
   GGA     =    PE    GGA type
   LEXCH   =     8    internal setting for exchange type
   VOSKOWN=      0    Vosko Wilk Nusair interpolation
   LHFCALC =     F    Hartree Fock is set to
   LHFONE  =     F    Hartree Fock one center treatment
   AEXX    =    0.0000 exact exchange contribution

 Linear response parameters
   LEPSILON=     F    determine dielectric tensor
   LRPA    =     F    only Hartree local field effects (RPA)
   LNABLA  =     F    use nabla operator in PAW spheres
   LVEL    =     F    velocity operator in full k-point grid
   LINTERFAST=   F  fast interpolation
   KINTER  =     0    interpolate to denser k-point grid
   CSHIFT  =0.1000    complex shift for real part using Kramers Kronig
   OMEGAMAX=  -1.0    maximum frequency
   DEG_THRESHOLD= 0.2000000E-02 threshold for treating states as degnerate
   RTIME   =   -0.100 relaxation time in fs
  (WPLASMAI=    0.000 imaginary part of plasma frequency in eV, 0.658/RTIME)
   DFIELD  = 0.0000000 0.0000000 0.0000000 field for delta impulse in time
 
 Orbital magnetization related:
   ORBITALMAG=     F  switch on orbital magnetization
   LCHIMAG   =     F  perturbation theory with respect to B field
   DQ        =  0.001000  dq finite difference perturbation B field
   LLRAUG    =     F  two centre corrections for induced B field



--------------------------------------------------------------------------------------------------------


 conjugate gradient relaxation of ions
 charge density and potential will be updated during run
 spin polarized calculation
 Variant of blocked Davidson
 Davidson routine will perform the subspace rotation
 perform sub-space diagonalisation
    after iterative eigenvector-optimisation
 modified Broyden-mixing scheme, WC =      100.0
 initial mixing is a Kerker type mixing with AMIX =  0.4000 and BMIX =      1.0000
 Hartree-type preconditioning will be used
 using additional bands           82
 real space projection scheme for non local part
 use partial core corrections
 calculate Harris-corrections to forces 
   (improved forces if not selfconsistent)
 use gradient corrections 
 use of overlap-Matrix (Vanderbilt PP)
 Gauss-broadening in eV      SIGMA  =   0.05


--------------------------------------------------------------------------------------------------------


  energy-cutoff  :      600.00
  volume of cell :     1875.22
      direct lattice vectors                 reciprocal lattice vectors
     8.738874930 -0.001228227 -0.001732872     0.114431208  0.000000040  0.000010480
     0.000251064 32.675095509 -2.865474318     0.000004878  0.030844524  0.002738729
    -0.000605952 -0.587686871  6.618735840     0.000032072  0.013353636  0.152271944

  length of vectors
     8.738875188 32.800500143  6.644775417     0.114431209  0.030965873  0.152856356


 
 k-points in units of 2pi/SCALE and weight: read from INCAR                         
   0.00000000  0.00000000  0.00000000       0.083
   0.03814374  0.00000001  0.00000349       0.167
   0.00000802  0.00333841  0.03806799       0.167
   0.03815175  0.00333842  0.03807148       0.167
  -0.03813572  0.00333840  0.03806449       0.167
   0.00001604  0.00667682  0.07613597       0.083
   0.03815977  0.00667683  0.07613947       0.167
 
 k-points in reciprocal lattice and weights: read from INCAR                         
   0.00000000  0.00000000  0.00000000       0.083
   0.33333333 -0.00000000  0.00000000       0.167
  -0.00000000  0.00000000  0.25000000       0.167
   0.33333333  0.00000000  0.25000000       0.167
  -0.33333333 -0.00000000  0.25000000       0.167
  -0.00000000  0.00000000  0.50000000       0.083
   0.33333333  0.00000000  0.50000000       0.167
 
 position of ions in fractional coordinates (direct lattice) 
   0.89307437  0.95725857  0.14997804
   0.76601114  0.95132593  0.43439088
   0.89388996  0.79851644  0.89667280
   0.60676645  0.45714519  0.64797988
   0.73321344  0.30433738  0.11118904
   0.22919120  0.80449640  0.11241822
   0.73357319  0.45129481  0.93277451
   0.60562367  0.29846132  0.39530323
   0.27098622  0.45150420  0.43269320
   0.10225918  0.79855225  0.39690004
   0.22877471  0.95154013  0.93434261
   0.27037332  0.30438816  0.61095996
   0.76654449  0.80436433  0.61228780
   0.10157189  0.95730451  0.64970298
   0.39755963  0.29851708  0.89543986
   0.39803224  0.45725324  0.14801222
   0.68768835  0.03227582  0.13757141
   0.82754962  0.04988120  0.47102649
   0.82898402  0.70589931  0.57546941
   0.67175148  0.54972764  0.96923617
   0.67082762  0.20580823  0.07490001
   0.30852059  0.72366712  0.40917509
   0.81192741  0.53226644  0.63604557
   0.81091608  0.22342819  0.40818983
   0.19300521  0.53226889  0.13491157
   0.16898753  0.70591403  0.07555411
   0.16803346  0.05007248  0.96999016
   0.33061996  0.20578825  0.57495868
   0.68919661  0.72335481  0.90892605
   0.30691606  0.03222098  0.63602590
   0.19141209  0.22365779  0.90861904
   0.33194802  0.55000397  0.46895168
   0.68650097  0.07687907  0.12356873
   0.81701559  0.09428084  0.45548188
   0.81848343  0.66147982  0.59051471
   0.68257647  0.59414658  0.95433859
   0.68131340  0.16141486  0.09050502
   0.31127607  0.67903936  0.42252242
   0.81312041  0.57688853  0.62246980
   0.81189032  0.17883254  0.42235332
   0.19036341  0.57688902  0.12147799
   0.18145185  0.66150065  0.09017530
   0.18011522  0.09446586  0.95468567
   0.31840980  0.16139837  0.59019384
   0.68808515  0.67873934  0.92247569
   0.30962624  0.07682376  0.62224596
   0.18869299  0.17904662  0.92242289
   0.31992598  0.59441766  0.45401602
   0.62345718  0.08952905  0.95282789
   0.87809357  0.12407004  0.60930763
   0.87954784  0.63177074  0.43641721
   0.62171135  0.62386451  0.10852416
   0.62020415  0.13163859  0.93668077
   0.37482543  0.66642632  0.59304018
   0.87624928  0.58963265  0.45206009
   0.87482876  0.16617944  0.59311633
   0.12693348  0.58949201  0.95086897
   0.12172464  0.63163646  0.93561253
   0.12017783  0.12437358  0.10881659
   0.37814859  0.13149266  0.43589762
   0.62516292  0.66600380  0.09300502
   0.37296663  0.08936793  0.45147611
   0.12514697  0.16649695  0.09306006
   0.37977753  0.62428541  0.60846733
   0.79752948  0.97874162  0.30049999
   0.79843725  0.77697413  0.74617001
   0.70222919  0.47866043  0.79857992
   0.70124665  0.27694377  0.24503513
   0.19773720  0.77707343  0.24629278
   0.30272370  0.47884125  0.29850023
   0.19708362  0.97887050  0.80004749
   0.30193747  0.27700536  0.74503006
   0.75026003  0.10650919  0.28154705
   0.75171991  0.64917144  0.76421265
   0.74938464  0.60645432  0.78068068
   0.74809712  0.14919948  0.26444802
   0.24873686  0.64932423  0.26394213
   0.25276178  0.60659978  0.28017964
   0.24729123  0.10657702  0.78073638
   0.25120792  0.14928365  0.76411187
   0.04899321  0.87793557  0.02330551
   0.94645841  0.87789675  0.52330742
   0.45049859  0.37787801  0.52167784
   0.55322588  0.37784839  0.02188693
   0.42862807  0.14148336  0.30292159
   0.92157968  0.56607661  0.33083522
   0.92010426  0.18979547  0.71413058
   0.57811822  0.06592522  0.83177284
   0.58012898  0.68957272  0.21438251
   0.57163232  0.61372291  0.24130779
   0.07115204  0.64167077  0.80279455
   0.06962196  0.11438672  0.24176554
   0.92971725  0.64193837  0.30373210
   0.08071916  0.19020471  0.21427421
   0.08273725  0.56581835  0.82927257
   0.41915505  0.69009797  0.71453932
   0.43027089  0.61427160  0.74137732
   0.57009876  0.14174658  0.80376124
   0.92821731  0.11401525  0.74233803
   0.41711650  0.06565419  0.33009038
   0.80000807  0.45589223  0.07303336
   0.20370203  0.29980711  0.47089615
   0.44818016  0.46779078  0.01719454
   0.05229806  0.78793421  0.52765870
   0.29533526  0.95619675  0.07451241
   0.44766015  0.28793187  0.02619282
   0.94314785  0.96789257  0.01934286
   0.69991317  0.79976014  0.47218386
   0.05131527  0.96786770  0.51901011
   0.55678536  0.46774431  0.51716479
   0.79994560  0.29973338  0.97121382
   0.69940420  0.95588621  0.57445261
   0.55523944  0.28786789  0.52583475
   0.20451461  0.45616268  0.57287552
   0.29574227  0.79994405  0.97232437
   0.94413704  0.78791969  0.02731215
   0.91934861  0.91930712  0.19210569
   0.84090468  0.91528862  0.36704576
   0.91977988  0.83648590  0.85457082
   0.58036372  0.41921602  0.69034481
   0.65844560  0.34040892  0.17833448
   0.15428254  0.84052679  0.17974084
   0.65864653  0.41524624  0.86553193
   0.57971359  0.33642125  0.35308742
   0.34557755  0.41540457  0.36559673
   0.07594758  0.83650321  0.35475856
   0.15399753  0.91546208  0.86729433
   0.34534218  0.34043279  0.67809610
   0.84117431  0.84045694  0.67963662
   0.07549056  0.91937667  0.69221443
   0.42384103  0.33645128  0.85310578
   0.42401439  0.41931453  0.19048546
   0.76143211  0.02138836  0.31050848
   0.76270662  0.73431282  0.73606205
   0.73816246  0.52131371  0.80876250
   0.73712176  0.23429572  0.23526293
   0.23441846  0.73447301  0.23631085
   0.26651863  0.52146046  0.30815150
   0.23341910  0.02147872  0.80939838
   0.26532606  0.23440151  0.73552798
   0.62975921  0.00584506  0.00584218
   0.89226754  0.03810217  0.61515090
   0.89369114  0.71776182  0.43160192
   0.60662611  0.53787071  0.11280772
   0.60612739  0.21759547  0.93078918
   0.36563034  0.75017213  0.54126932
   0.86995487  0.50587601  0.50428058
   0.86914372  0.24985505  0.53967292
   0.13603181  0.50576212  0.00270767
   0.10343898  0.71763615  0.93188038
   0.10290945  0.03837271  0.11399804
   0.39580893  0.21745217  0.43090290
   0.63121768  0.74972709  0.04083100
   0.36372333  0.00568086  0.50388774
   0.13441156  0.25019708  0.04058267
   0.39700573  0.53826941  0.61295885
 
 position of ions in cartesian coordinates  (Angst):
   7.80461467 31.18927820 -1.75188241
   6.69405114 30.82843881  0.14779108
   7.81124971 25.56354007  3.64516307
   5.30217825 14.55570828  2.97781841
   6.40746962  9.87800800 -0.13741062
   2.00300712 26.22064865 -1.56159442
   6.41015246 14.19702060  4.87934319
   5.29230492  9.51919379  1.76012497
   2.36796585 14.49832180  1.56963873
   0.89359020 25.85939255  0.33856832
   1.99890633 30.54228279  3.45715666
   2.36246481  9.58652689  3.17109760
   6.69856737 25.92190630  1.74635759
   0.88747067 30.89806963  1.55690487
   3.47375628  9.22734766  5.07059793
   3.47837904 14.85331959 -0.33128338
   6.00954725  0.97292190  0.81687159
   7.23157972  1.35204034  2.97323261
   7.24421623 22.72611350  1.78470710
   5.86990289 17.39197063  4.83872368
   5.86228496  6.67996204 -0.09515728
   2.69605658 23.40504638  0.63403765
   7.09508032 17.01706403  2.68321483
   7.08630294  7.05965361  2.06006772
   1.68670030 17.31241393 -0.63259321
   1.47689234 23.02119879 -1.52299867
   1.46784820  1.06586618  6.27633604
   2.88894975  6.38584898  3.21524575
   6.02243381 23.10067696  3.94199251
   2.68172371  0.67866260  4.11682715
   1.67223185  6.77382096  5.37269205
   2.90070611 17.69542787  1.52726983
   5.99919054  2.43856814  0.59638417
   7.13954474  2.81195124  2.74313914
   7.15243258 21.26587311  2.01158912
   5.96452131 18.85210548  4.61282047
   5.95389831  5.22022045  0.13531808
   2.72011710 21.93898266  0.85025504
   7.10552518 18.48307187  2.46549486
   7.09479696  5.59416177  2.28159809
   1.66363324 18.77827901 -0.84935983
   1.58579646 21.56137930 -1.29898106
   1.57344962  2.52540361  6.04781061
   2.78222632  4.92646689  3.44330245
   6.01270149 21.63490078  4.15952039
   2.70542723  2.14415768  3.89780857
   1.64845047  5.30803780  5.59189295
   2.79566721 19.15544148  1.30116917
   5.44775947  2.36464004  6.04889257
   7.67321185  3.69483973  3.67580514
   7.68615277 20.38561245  1.07668327
   5.43314864 20.32029054 -1.07045232
   5.41935195  3.75006678  5.82136087
   3.27536049 21.42656135  2.01489928
   7.65730697 18.99955712  1.30097070
   7.64470141  5.08028776  3.44798142
   1.10882758 18.70273863  4.60415636
   1.06332807 20.08878494  4.38242317
   1.05018433  3.99982080  0.36363073
   3.30436211  4.03989954  2.50764709
   5.46333139 21.70631220 -1.29392446
   3.25905756  2.65432114  2.73147326
   1.09362912  5.38546002  0.13863035
   3.31861639 20.04053073  2.23775261
   6.96957406 31.80289646 -0.81701093
   6.97718616 24.94820882  2.71091921
   6.13632931 15.17009773  3.91278348
   6.12802782  8.90429888  0.82703236
   1.72804648 25.24596262 -0.59687977
   2.64540388 15.47038725  0.60306230
   1.72205004 31.51426753  2.49003319
   2.63821190  8.61296131  4.13688219
   6.55628474  3.31381482  1.55698609
   6.56888618 20.76169779  3.19663493
   6.54845785 19.35623673  3.42804135
   6.53740438  4.71877570  1.32148797
   2.17368336 21.06131035 -0.11408969
   2.20883608 19.65573754  0.11580093
   2.16060078  3.02328208  4.86166562
   2.19484905  4.42849042  4.62925084
   0.42835187 28.67287196 -2.36153368
   8.27088499 28.37665671  0.94640288
   3.93662960 12.04006359  2.36926743
   4.83465334 12.33268995 -0.93880971
   3.74557908  4.44443283  1.59879832
   8.05351118 18.30104799  0.56603597
   8.04029094  5.78076985  4.18119318
   5.05161535  1.66458098  5.31537586
   5.06971780 22.40515212 -0.55801699
   4.99543125 19.91093922 -0.16244526
   0.62146343 20.49477440  3.47467064
   0.60829982  3.59542907  1.27228938
   8.12465988 20.79575623  0.16925358
   0.70531252  6.08893175  0.87305781
   0.72267004 18.00071454  3.86725477
   3.66268387 22.12857695  2.75116264
   3.75978848 19.63515717  3.14605552
   4.98157032  4.15852282  4.91272425
   8.11115379  3.28805674  4.58502305
   3.64494538  1.95075471  1.99592783
   6.99124071 14.85241883 -0.82434526
   1.77991650  9.51923629  2.25729465
   3.91669740 15.27445305 -1.22741299
   0.45690433 25.43566308  1.23453773
   2.58109285 31.19966750 -2.24729108
   3.91210250  9.39225826 -0.65247375
   8.24228240 31.61345613 -2.64708039
   6.11636836 25.85388313  0.83235522
   0.44836622 31.32009123  0.66170185
   4.86548168 14.97897513  2.08170297
   6.99011134  9.22206459  5.56794323
   6.11189772 30.89521578  1.06187075
   4.85192170  9.09640261  2.65452109
   1.78699500 14.56823653  2.48423491
   2.58406634 25.56646275  4.14282656
   8.25087675 25.72814048 -2.07862778
   8.03418690 29.92442082 -1.36434722
   7.34856817 29.69040213 -0.19481425
   8.03753356 26.82890688  3.25765579
   5.07141288 13.29150422  3.36695152
   5.75405113 11.01728057  0.20377475
   1.34835795 27.35847222 -1.21911815
   5.75540944 13.05873997  4.53770838
   5.06591506 10.78437966  1.37198132
   3.01984176 13.35810323  1.22885819
   0.66369149 27.12424213 -0.04905687
   1.34546948 29.40292428  3.11689216
   3.01757670 10.72474159  3.51203913
   7.35071625 27.06156404  2.08856981
   0.65951392 29.63382255  1.94700340
   3.70346128 10.49169796  4.68165486
   3.70539861 13.58867580  0.05850318
   6.65387721  0.51544980  1.99256633
   6.66493613 23.56023087  2.76632403
   6.45035021 16.55776947  3.85789519
   6.44153114  7.51646867  0.88449748
   2.04859481 23.85981095 -0.54094068
   2.32901716 16.85734656  0.54487997
   2.03933527  0.22585959  5.29524284
   2.31826441  7.22650579  4.19613414
   5.50338486  0.18678108  0.02082767
   7.79705127  0.88237992  3.96079432
   7.80977373 23.19819161  0.79838238
   5.30129640 17.50793619 -0.79566145
   5.29636206  6.56219565  5.53608315
   3.19505813 24.19339993  1.43228609
   7.60224825 16.23211923  1.88661775
   7.59507398  7.84581130  2.85449318
   1.18889035 16.52406709 -1.43156271
   0.90355580 22.90104867  4.11132288
   0.89925333  1.18671054  0.64438857
   3.45871822  6.85154823  2.22824299
   5.51629588 24.47263321 -1.87916795
   3.17822877 -0.11095220  3.31819117
   1.17464405  8.15119859 -0.44856023
   3.46914717 17.22728901  2.51392755
 


--------------------------------------------------------------------------------------------------------


 k-point  1 :   0.0000 0.0000 0.0000  plane waves:   62601
 k-point  2 :   0.3333-0.0000 0.0000  plane waves:   62600
 k-point  3 :  -0.0000 0.0000 0.2500  plane waves:   62613
 k-point  4 :   0.3333 0.0000 0.2500  plane waves:   62545
 k-point  5 :  -0.3333-0.0000 0.2500  plane waves:   62536
 k-point  6 :  -0.0000 0.0000 0.5000  plane waves:   62622
 k-point  7 :   0.3333 0.0000 0.5000  plane waves:   62583

 maximum and minimum number of plane-waves per node :     15683    15611

 maximum number of plane-waves:     62622
 maximum index in each direction: 
   IXMAX=   17   IYMAX=   65   IZMAX=   13
   IXMIN=  -17   IYMIN=  -65   IZMIN=  -13


 real space projection operators:
  total allocation   :      11696.73 KBytes
  max/ min on nodes  :       3000.32       2847.88


 parallel 3D FFT for wavefunctions:
    minimum data exchange during FFTs selected (reduces bandwidth)
 parallel 3D FFT for charge:
    minimum data exchange during FFTs selected (reduces bandwidth)


 total amount of memory used by VASP MPI-rank0   100666. kBytes
=======================================================================

   base      :      30000. kBytes
   nonlr-proj:       9417. kBytes
   fftplans  :       4580. kBytes
   grid      :      12448. kBytes
   one-center:       1213. kBytes
   wavefun   :      43008. kBytes
 
     INWAV:  cpu time    0.0001: real time    0.0001
 Broyden mixing: mesh for mixing (old mesh)
   NGX = 35   NGY =131   NGZ = 27
  (NGX  =108   NGY  =400   NGZ  = 80)
  gives a total of 123795 points

 initial charge density was supplied:
 charge density of overlapping atoms calculated
 number of electron     604.0000000 magnetization      -0.0000000
 keeping initial charge density in first step


--------------------------------------------------------------------------------------------------------


 Maximum index for non-local projection operator          619
 Maximum index for augmentation-charges          421 (set IRDMAX)


--------------------------------------------------------------------------------------------------------


 First call to EWALD:  gamma=   0.144
 Maximum number of real-space cells 4x 1x 5
 Maximum number of reciprocal cells 2x 6x 2

    FEWALD:  cpu time    0.0150: real time    0.0150


--------------------------------------- Iteration      1(   1)  ---------------------------------------


    POTLOK:  cpu time    0.2020: real time    0.2454
    SETDIJ:  cpu time    0.0645: real time    0.0667
     EDDAV:  cpu time   28.2113: real time   28.3528
       DOS:  cpu time    0.0056: real time    0.0056
    --------------------------------------------
      LOOP:  cpu time   28.4835: real time   28.6705

 eigenvalue-minimisations  : 10752
 total energy-change (2. order) : 0.4615442E+04  (-0.3134875E+05)
 number of electron     604.0000000 magnetization      -0.0000000
 augmentation part      604.0000000 magnetization      -0.0000000

 Free energy of the ion-electron system (eV)
  ---------------------------------------------------
  alpha Z        PSCENC =       900.86008451
  Ewald energy   TEWEN  =     -7167.70688106
  -Hartree energ DENC   =    -19293.33029411
  -exchange      EXHF   =         0.00000000
  -V(xc)+E(xc)   XCENC  =      2121.22107058
  PAW double counting   =     22087.95224925   -22402.63741193
  entropy T*S    EENTRO =        -0.03107388
  eigenvalues    EBANDS =      -322.69658729
  atomic energy  EATOM  =     28691.81066055
  Solvation  Ediel_sol  =         0.00000000
  ---------------------------------------------------
  free energy    TOTEN  =      4615.44181660 eV

  energy without entropy =     4615.47289049  energy(sigma->0) =     4615.45735355


--------------------------------------------------------------------------------------------------------




--------------------------------------- Iteration      1(   2)  ---------------------------------------


     EDDAV:  cpu time   32.9220: real time   32.9736
       DOS:  cpu time    0.0050: real time    0.0050
    --------------------------------------------
      LOOP:  cpu time   32.9270: real time   32.9786

 eigenvalue-minimisations  : 13376
 total energy-change (2. order) :-0.5317975E+04  (-0.5115126E+04)
 number of electron     604.0000000 magnetization      -0.0000000
 augmentation part      604.0000000 magnetization      -0.0000000

 Free energy of the ion-electron system (eV)
  ---------------------------------------------------
  alpha Z        PSCENC =       900.86008451
  Ewald energy   TEWEN  =     -7167.70688106
  -Hartree energ DENC   =    -19293.33029411
  -exchange      EXHF   =         0.00000000
  -V(xc)+E(xc)   XCENC  =      2121.22107058
  PAW double counting   =     22087.95224925   -22402.63741193
  entropy T*S    EENTRO =        -0.01505199
  eigenvalues    EBANDS =     -5640.68769331
  atomic energy  EATOM  =     28691.81066055
  Solvation  Ediel_sol  =         0.00000000
  ---------------------------------------------------
  free energy    TOTEN  =      -702.53326752 eV

  energy without entropy =     -702.51821553  energy(sigma->0) =     -702.52574153


--------------------------------------------------------------------------------------------------------




--------------------------------------- Iteration      1(   3)  ---------------------------------------


     EDDAV:  cpu time   32.4025: real time   32.4493
       DOS:  cpu time    0.0048: real time    0.0048
    --------------------------------------------
      LOOP:  cpu time   32.4073: real time   32.4541

 eigenvalue-minimisations  : 12864
 total energy-change (2. order) :-0.5700228E+03  (-0.5617474E+03)
 number of electron     604.0000000 magnetization      -0.0000000
 augmentation part      604.0000000 magnetization      -0.0000000

 Free energy of the ion-electron system (eV)
  ---------------------------------------------------
  alpha Z        PSCENC =       900.86008451
  Ewald energy   TEWEN  =     -7167.70688106
  -Hartree energ DENC   =    -19293.33029411
  -exchange      EXHF   =         0.00000000
  -V(xc)+E(xc)   XCENC  =      2121.22107058
  PAW double counting   =     22087.95224925   -22402.63741193
  entropy T*S    EENTRO =        -0.06457780
  eigenvalues    EBANDS =     -6210.66093065
  atomic energy  EATOM  =     28691.81066055
  Solvation  Ediel_sol  =         0.00000000
  ---------------------------------------------------
  free energy    TOTEN  =     -1272.55603068 eV

  energy without entropy =    -1272.49145287  energy(sigma->0) =    -1272.52374177


--------------------------------------------------------------------------------------------------------




--------------------------------------- Iteration      1(   4)  ---------------------------------------


     EDDAV:  cpu time   35.4965: real time   35.5453
       DOS:  cpu time    0.0048: real time    0.0048
    --------------------------------------------
      LOOP:  cpu time   35.5013: real time   35.5501

 eigenvalue-minimisations  : 14080
 total energy-change (2. order) :-0.1982984E+02  (-0.1965653E+02)
 number of electron     604.0000000 magnetization      -0.0000000
 augmentation part      604.0000000 magnetization      -0.0000000

 Free energy of the ion-electron system (eV)
  ---------------------------------------------------
  alpha Z        PSCENC =       900.86008451
  Ewald energy   TEWEN  =     -7167.70688106
  -Hartree energ DENC   =    -19293.33029411
  -exchange      EXHF   =         0.00000000
  -V(xc)+E(xc)   XCENC  =      2121.22107058
  PAW double counting   =     22087.95224925   -22402.63741193
  entropy T*S    EENTRO =        -0.05530607
  eigenvalues    EBANDS =     -6230.50004081
  atomic energy  EATOM  =     28691.81066055
  Solvation  Ediel_sol  =         0.00000000
  ---------------------------------------------------
  free energy    TOTEN  =     -1292.38586909 eV

  energy without entropy =    -1292.33056303  energy(sigma->0) =    -1292.35821606


--------------------------------------------------------------------------------------------------------




--------------------------------------- Iteration      1(   5)  ---------------------------------------


     EDDAV:  cpu time   37.7574: real time   37.8084
       DOS:  cpu time    0.0051: real time    0.0051
    CHARGE:  cpu time    0.9093: real time    0.9119
    MIXING:  cpu time    0.0107: real time    0.0139
    --------------------------------------------
      LOOP:  cpu time   38.6825: real time   38.7393

 eigenvalue-minimisations  : 15168
 total energy-change (2. order) :-0.6534383E+00  (-0.6524083E+00)
 number of electron     604.0000102 magnetization      -0.0000993
 augmentation part       36.1973450 magnetization       0.0009681

 Broyden mixing:
  rms(total) = 0.89408E+01    rms(broyden)= 0.89403E+01
  rms(prec ) = 0.95246E+01
  weight for this iteration     100.00

 Free energy of the ion-electron system (eV)
  ---------------------------------------------------
  alpha Z        PSCENC =       900.86008451
  Ewald energy   TEWEN  =     -7167.70688106
  -Hartree energ DENC   =    -19293.33029411
  -exchange      EXHF   =         0.00000000
  -V(xc)+E(xc)   XCENC  =      2121.22107058
  PAW double counting   =     22087.95224925   -22402.63741193
  entropy T*S    EENTRO =        -0.05491421
  eigenvalues    EBANDS =     -6231.15387092
  atomic energy  EATOM  =     28691.81066055
  Solvation  Ediel_sol  =         0.00000000
  ---------------------------------------------------
  free energy    TOTEN  =     -1293.03930735 eV

  energy without entropy =    -1292.98439314  energy(sigma->0) =    -1293.01185025


--------------------------------------------------------------------------------------------------------




--------------------------------------- Iteration      1(   6)  ---------------------------------------


    POTLOK:  cpu time    0.2497: real time    0.2499
    SETDIJ:  cpu time    0.0630: real time    0.0630
     EDDAV:  cpu time   40.8819: real time   40.9384
       DOS:  cpu time    0.0057: real time    0.0057
    CHARGE:  cpu time    0.8920: real time    0.8934
    MIXING:  cpu time    0.0091: real time    0.0210
    --------------------------------------------
      LOOP:  cpu time   42.1014: real time   42.1714

 eigenvalue-minimisations  : 16928
 total energy-change (2. order) :-0.2652141E+03  (-0.3171174E+03)
 number of electron     604.0000060 magnetization      -0.0002832
 augmentation part       56.8803705 magnetization       0.0233934

 Broyden mixing:
  rms(total) = 0.24314E+02    rms(broyden)= 0.24314E+02
  rms(prec ) = 0.24615E+02
  weight for this iteration     100.00

 eigenvalues of (default mixing * dielectric matrix)
  average eigenvalue GAMMA=   0.0941
  0.0941

 Free energy of the ion-electron system (eV)
  ---------------------------------------------------
  alpha Z        PSCENC =       900.86008451
  Ewald energy   TEWEN  =     -7167.70688106
  -Hartree energ DENC   =    -19809.47384315
  -exchange      EXHF   =         0.00000000
  -V(xc)+E(xc)   XCENC  =      2155.91698521
  PAW double counting   =     32786.74213381   -33006.01950719
  entropy T*S    EENTRO =        -0.02467616
  eigenvalues    EBANDS =     -6110.35832554
  atomic energy  EATOM  =     28691.81066055
  Solvation  Ediel_sol  =         0.00000000
  ---------------------------------------------------
  free energy    TOTEN  =     -1558.25336903 eV

  energy without entropy =    -1558.22869287  energy(sigma->0) =    -1558.24103095


--------------------------------------------------------------------------------------------------------




--------------------------------------- Iteration      1(   7)  ---------------------------------------


    POTLOK:  cpu time    0.1725: real time    0.1726
    SETDIJ:  cpu time    0.0675: real time    0.0675
     EDDAV:  cpu time   30.8200: real time   30.8631
       DOS:  cpu time    0.0057: real time    0.0057
    CHARGE:  cpu time    0.8888: real time    0.8902
    MIXING:  cpu time    0.0058: real time    0.0102
    --------------------------------------------
      LOOP:  cpu time   31.9604: real time   32.0093

 eigenvalue-minimisations  : 12352
 total energy-change (2. order) : 0.9678949E+02  (-0.2927460E+02)
 number of electron     604.0000056 magnetization       0.0021064
 augmentation part       55.5103138 magnetization      -0.0089108

 Broyden mixing:
  rms(total) = 0.15665E+02    rms(broyden)= 0.15665E+02
  rms(prec ) = 0.15997E+02
  weight for this iteration     100.00

 eigenvalues of (default mixing * dielectric matrix)
  average eigenvalue GAMMA=   0.4404
  0.4404  0.4404

 Free energy of the ion-electron system (eV)
  ---------------------------------------------------
  alpha Z        PSCENC =       900.86008451
  Ewald energy   TEWEN  =     -7167.70688106
  -Hartree energ DENC   =    -19885.91947697
  -exchange      EXHF   =         0.00000000
  -V(xc)+E(xc)   XCENC  =      2158.97745497
  PAW double counting   =     34152.86022326   -34398.86853320
  entropy T*S    EENTRO =        -0.01879621
  eigenvalues    EBANDS =     -5913.45861865
  atomic energy  EATOM  =     28691.81066055
  Solvation  Ediel_sol  =         0.00000000
  ---------------------------------------------------
  free energy    TOTEN  =     -1461.46388280 eV

  energy without entropy =    -1461.44508659  energy(sigma->0) =    -1461.45448469


--------------------------------------------------------------------------------------------------------




--------------------------------------- Iteration      1(   8)  ---------------------------------------


    POTLOK:  cpu time    0.1635: real time    0.1636
    SETDIJ:  cpu time    0.0620: real time    0.0620
     EDDAV:  cpu time   35.9247: real time   35.9737
       DOS:  cpu time    0.0058: real time    0.0058
    CHARGE:  cpu time    0.8962: real time    0.8975
    MIXING:  cpu time    0.0052: real time    0.0069
    --------------------------------------------
      LOOP:  cpu time   37.0574: real time   37.1096

 eigenvalue-minimisations  : 14880
 total energy-change (2. order) : 0.2884299E+03  (-0.3860548E+02)
 number of electron     604.0000067 magnetization       0.0034823
 augmentation part       52.3194237 magnetization      -0.0443228

 Broyden mixing:
  rms(total) = 0.58333E+01    rms(broyden)= 0.58331E+01
  rms(prec ) = 0.64872E+01
  weight for this iteration     100.00

 eigenvalues of (default mixing * dielectric matrix)
  average eigenvalue GAMMA=   0.4900
  0.5630  0.5630  0.3440

 Free energy of the ion-electron system (eV)
  ---------------------------------------------------
  alpha Z        PSCENC =       900.86008451
  Ewald energy   TEWEN  =     -7167.70688106
  -Hartree energ DENC   =    -20122.55721025
  -exchange      EXHF   =         0.00000000
  -V(xc)+E(xc)   XCENC  =      2176.27385484
  PAW double counting   =     39577.74236771   -39908.39620356
  entropy T*S    EENTRO =        -0.03000241
  eigenvalues    EBANDS =     -5321.03069861
  atomic energy  EATOM  =     28691.81066055
  Solvation  Ediel_sol  =         0.00000000
  ---------------------------------------------------
  free energy    TOTEN  =     -1173.03402828 eV

  energy without entropy =    -1173.00402587  energy(sigma->0) =    -1173.01902708


--------------------------------------------------------------------------------------------------------




--------------------------------------- Iteration      1(   9)  ---------------------------------------


    POTLOK:  cpu time    0.1606: real time    0.1606
    SETDIJ:  cpu time    0.0615: real time    0.0616
     EDDAV:  cpu time   38.2490: real time   38.3009
       DOS:  cpu time    0.0065: real time    0.0082
    CHARGE:  cpu time    0.8914: real time    0.8932
    MIXING:  cpu time    0.0048: real time    0.0048
    --------------------------------------------
      LOOP:  cpu time   39.3737: real time   39.4294

 eigenvalue-minimisations  : 15936
 total energy-change (2. order) : 0.3669784E-02  (-0.3918622E+02)
 number of electron     604.0000083 magnetization       0.0191114
 augmentation part       35.1236947 magnetization      -0.2922039

 Broyden mixing:
  rms(total) = 0.63964E+01    rms(broyden)= 0.63961E+01
  rms(prec ) = 0.72635E+01
  weight for this iteration     100.00

 eigenvalues of (default mixing * dielectric matrix)
  average eigenvalue GAMMA=   0.5318
  1.0326  0.4125  0.4125  0.2697

 Free energy of the ion-electron system (eV)
  ---------------------------------------------------
  alpha Z        PSCENC =       900.86008451
  Ewald energy   TEWEN  =     -7167.70688106
  -Hartree energ DENC   =    -20236.75036076
  -exchange      EXHF   =         0.00000000
  -V(xc)+E(xc)   XCENC  =      2181.94417172
  PAW double counting   =     41667.29059690   -42018.62762346
  entropy T*S    EENTRO =        -0.04316131
  eigenvalues    EBANDS =     -5191.80784559
  atomic energy  EATOM  =     28691.81066055
  Solvation  Ediel_sol  =         0.00000000
  ---------------------------------------------------
  free energy    TOTEN  =     -1173.03035850 eV

  energy without entropy =    -1172.98719719  energy(sigma->0) =    -1173.00877784


--------------------------------------------------------------------------------------------------------




--------------------------------------- Iteration      1(  10)  ---------------------------------------


    POTLOK:  cpu time    0.1705: real time    0.1998
    SETDIJ:  cpu time    0.0621: real time    0.0621
     EDDAV:  cpu time   35.7931: real time   35.8424
       DOS:  cpu time    0.0069: real time    0.0069
    CHARGE:  cpu time    0.9200: real time    0.9212
    MIXING:  cpu time    0.0051: real time    0.0051
    --------------------------------------------
      LOOP:  cpu time   36.9575: real time   37.0374

 eigenvalue-minimisations  : 14464
 total energy-change (2. order) : 0.1703386E+02  (-0.5247678E+02)
 number of electron     604.0000083 magnetization       0.0569498
 augmentation part       42.7806913 magnetization      -1.0963011

 Broyden mixing:
  rms(total) = 0.44433E+01    rms(broyden)= 0.44431E+01
  rms(prec ) = 0.50786E+01
  weight for this iteration     100.00

 eigenvalues of (default mixing * dielectric matrix)
  average eigenvalue GAMMA=   0.4714
  1.0517  0.4197  0.4197  0.2893  0.1765

 Free energy of the ion-electron system (eV)
  ---------------------------------------------------
  alpha Z        PSCENC =       900.86008451
  Ewald energy   TEWEN  =     -7167.70688106
  -Hartree energ DENC   =    -20426.27961164
  -exchange      EXHF   =         0.00000000
  -V(xc)+E(xc)   XCENC  =      2191.72838805
  PAW double counting   =     48866.34449726   -49216.62909709
  entropy T*S    EENTRO =        -0.03227162
  eigenvalues    EBANDS =     -4996.09227162
  atomic energy  EATOM  =     28691.81066055
  Solvation  Ediel_sol  =         0.00000000
  ---------------------------------------------------
  free energy    TOTEN  =     -1155.99650267 eV

  energy without entropy =    -1155.96423106  energy(sigma->0) =    -1155.98036686


--------------------------------------------------------------------------------------------------------




--------------------------------------- Iteration      1(  11)  ---------------------------------------


    POTLOK:  cpu time    0.1602: real time    0.1896
    SETDIJ:  cpu time    0.0622: real time    0.0622
     EDDAV:  cpu time   38.3298: real time   38.3823
       DOS:  cpu time    0.0047: real time    0.0047
    CHARGE:  cpu time    0.8880: real time    0.8894
    MIXING:  cpu time    0.0050: real time    0.0050
    --------------------------------------------
      LOOP:  cpu time   39.4498: real time   39.5331

 eigenvalue-minimisations  : 15424
 total energy-change (2. order) :-0.2603921E+02  (-0.4785171E+02)
 number of electron     604.0000072 magnetization       0.0647328
 augmentation part       42.2852175 magnetization       1.5806924

 Broyden mixing:
  rms(total) = 0.58393E+01    rms(broyden)= 0.58393E+01
  rms(prec ) = 0.66775E+01
  weight for this iteration     100.00

 eigenvalues of (default mixing * dielectric matrix)
  average eigenvalue GAMMA=   0.5927
  1.7177  0.6501  0.4321  0.4321  0.2559  0.0682

 Free energy of the ion-electron system (eV)
  ---------------------------------------------------
  alpha Z        PSCENC =       900.86008451
  Ewald energy   TEWEN  =     -7167.70688106
  -Hartree energ DENC   =    -20452.66387776
  -exchange      EXHF   =         0.00000000
  -V(xc)+E(xc)   XCENC  =      2193.17259579
  PAW double counting   =     49783.12642538   -50132.38214167
  entropy T*S    EENTRO =        -0.00004883
  eigenvalues    EBANDS =     -4998.25253067
  atomic energy  EATOM  =     28691.81066055
  Solvation  Ediel_sol  =         0.00000000
  ---------------------------------------------------
  free energy    TOTEN  =     -1182.03571376 eV

  energy without entropy =    -1182.03566494  energy(sigma->0) =    -1182.03568935


--------------------------------------------------------------------------------------------------------




--------------------------------------- Iteration      1(  12)  ---------------------------------------


    POTLOK:  cpu time    0.1582: real time    0.1886
    SETDIJ:  cpu time    0.1344: real time    0.1344
     EDDAV:  cpu time   37.1051: real time   37.1552
       DOS:  cpu time    0.0055: real time    0.0055
    CHARGE:  cpu time    0.8890: real time    0.8904
    MIXING:  cpu time    0.0051: real time    0.0051
    --------------------------------------------
      LOOP:  cpu time   38.2972: real time   38.3792

 eigenvalue-minimisations  : 15040
 total energy-change (2. order) : 0.2674464E+02  (-0.1420011E+02)
 number of electron     604.0000064 magnetization       0.0725053
 augmentation part       47.1088131 magnetization       0.3362071

 Broyden mixing:
  rms(total) = 0.24340E+01    rms(broyden)= 0.24339E+01
  rms(prec ) = 0.26964E+01
  weight for this iteration     100.00

 eigenvalues of (default mixing * dielectric matrix)
  average eigenvalue GAMMA=   0.5243
  1.6967  0.6859  0.4293  0.4293  0.2618  0.0967  0.0706

 Free energy of the ion-electron system (eV)
  ---------------------------------------------------
  alpha Z        PSCENC =       900.86008451
  Ewald energy   TEWEN  =     -7167.70688106
  -Hartree energ DENC   =    -20567.83022502
  -exchange      EXHF   =         0.00000000
  -V(xc)+E(xc)   XCENC  =      2199.53455698
  PAW double counting   =     54106.66114134   -54452.52410725
  entropy T*S    EENTRO =        -0.05610089
  eigenvalues    EBANDS =     -4866.04020396
  atomic energy  EATOM  =     28691.81066055
  Solvation  Ediel_sol  =         0.00000000
  ---------------------------------------------------
  free energy    TOTEN  =     -1155.29107480 eV

  energy without entropy =    -1155.23497391  energy(sigma->0) =    -1155.26302435


--------------------------------------------------------------------------------------------------------




--------------------------------------- Iteration      1(  13)  ---------------------------------------


    POTLOK:  cpu time    0.1606: real time    0.1898
    SETDIJ:  cpu time    0.0617: real time    0.0617
     EDDAV:  cpu time   37.4672: real time   37.5181
       DOS:  cpu time    0.0052: real time    0.0052
    CHARGE:  cpu time    0.8914: real time    0.8927
    MIXING:  cpu time    0.0056: real time    0.0056
    --------------------------------------------
      LOOP:  cpu time   38.5917: real time   38.6730

 eigenvalue-minimisations  : 15744
 total energy-change (2. order) :-0.2421492E+01  (-0.4324179E+01)
 number of electron     604.0000067 magnetization       0.0628341
 augmentation part       44.9069304 magnetization       0.9003230

 Broyden mixing:
  rms(total) = 0.34580E+01    rms(broyden)= 0.34580E+01
  rms(prec ) = 0.36215E+01
  weight for this iteration     100.00

 eigenvalues of (default mixing * dielectric matrix)
  average eigenvalue GAMMA=   0.5093
  1.6878  0.8212  0.4302  0.4302  0.3155  0.2048  0.1147  0.0695

 Free energy of the ion-electron system (eV)
  ---------------------------------------------------
  alpha Z        PSCENC =       900.86008451
  Ewald energy   TEWEN  =     -7167.70688106
  -Hartree energ DENC   =    -20586.80992555
  -exchange      EXHF   =         0.00000000
  -V(xc)+E(xc)   XCENC  =      2199.40594157
  PAW double counting   =     54596.60855425   -54943.38020703
  entropy T*S    EENTRO =        -0.02932006
  eigenvalues    EBANDS =     -4848.47147434
  atomic energy  EATOM  =     28691.81066055
  Solvation  Ediel_sol  =         0.00000000
  ---------------------------------------------------
  free energy    TOTEN  =     -1157.71256717 eV

  energy without entropy =    -1157.68324711  energy(sigma->0) =    -1157.69790714


--------------------------------------------------------------------------------------------------------




[...]
   80            fft3d_mpi                            27.912042                     5740   5
   81              fftbas_plan_mpi                      27.891590                   5740   6
   82                dfftw_execute                        13.317515                17220   7
   83                map_forward                          11.480287                11480   7
   84                  map_gather                            2.947463               5740   8
   85                  m_alltoallv_z                         2.694500               5740   8
   86                  map_scatter                           3.610839               5740   8
   87          pw_charge                             3.143762                       5740   4
   88          fft3d_mpi                             0.288625                         82   4
   89            fftbas_plan_mpi                       0.259671                       82   5
   90              dfftw_execute                         0.091739                    246   6
   91              map_backward                          0.124974                    164   6
   92                map_gather                            0.047126                  164   7
   93                m_alltoallv_z                         0.072936                  164   7
   94                map_scatter                           0.003067                  164   7
   95        depsum                                0.143356                           41   3
   96        fft3d_mpi                             0.280002                           82   3
   97          fftbas_plan_mpi                       0.272308                         82   4
   98            dfftw_execute                         0.045046                      246   5
   99            map_backward                          0.170352                      164   5
  100              map_gather                            0.010117                     82   6
  101              m_alltoallv_z                         0.148960                     82   6
  102              map_scatter                           0.009910                     82   6
  103      brmix                                 0.416159                             41   2
  104        brpre                                 0.004727                           82   3
  105        setg0                                 0.047713                           43   3
  106        broyd                                 0.268982                           41   3
  107          brsav                                 0.011342                       1033   4
  108          brget                                 0.029887                       4932   4
  109      force_and_stress                     25.547215                              1   2
  110        set_charge                            0.884907                            1   3
  111          soft_charge                           0.837341                          1   4
  112            fftwav_mpi                            0.747643                      140   5
  113              fft3d_mpi                             0.675438                    140   6
  114                fftbas_plan_mpi                       0.674975                  140   7
  115                  dfftw_execute                         0.325519                420   8
  116                  map_forward                           0.273845                280   8
  117                    map_gather                            0.070947              140   9
  118                    m_alltoallv_z                         0.060798              140   9
  119                    map_scatter                           0.087439              140   9
  120            pw_charge                             0.072880                      140   5
  121            fft3d_mpi                             0.006944                        2   5
  122              fftbas_plan_mpi                       0.006220                      2   6
  123                dfftw_execute                         0.002189                    6   7
  124                map_backward                          0.002986                    4   7
  125                  map_gather                            0.001154                  4   8
  126                  m_alltoallv_z                         0.001722                  4   8
  127                  map_scatter                           0.000068                  4   8
  128          depsum                                0.003416                          1   4
  129          fft3d_mpi                             0.006579                          2   4
  130            fftbas_plan_mpi                       0.006403                        2   5
  131              dfftw_execute                         0.001127                      6   6
  132              map_backward                          0.003923                      4   6
  133                map_gather                            0.000304                    2   7
  134                m_alltoallv_z                         0.003355                    2   7
  135                map_scatter                           0.000230                    2   7
  136        forloc                                0.086991                            1   3
  137        fornlr                                3.914318                            1   3
  138          rspher_all                            0.090727                          3   4
  139          phaser                                0.296220                         21   4
  140          rpro_isp                              3.510661                         21   4
  141            fftwav_mpi                            2.659435                      504   5
  142              fft3d_mpi                             2.395224                    504   6
  143                fftbas_plan_mpi                       2.393482                  504   7
  144                  dfftw_execute                         1.154419               1512   8
  145                  map_forward                           0.968358               1008   8
  146                    map_gather                            0.245395              504   9
  147                    m_alltoallv_z                         0.222363              504   9
  148                    map_scatter                           0.309564              504   9
  149            rpromu                                0.845323                      126   5
  150              crrexp_mul_wave                       0.420457                  78624   6
  151              rpromu_gemm                           0.275749                  19656   6
  152        fordep                                0.190354                            1   3
  153          setdij_                               0.189871                          6   4
  154        setdij_                               0.626678                           20   3
  155        set_dd_paw                            0.030263                            1   3
  156        strkin                                0.018281                            1   3
  157        strelo                                0.004115                            1   3
  158        strnlr                               11.674445                            1   3
  159          rspher_all                            0.265325                          9   4
  160          phaser                                0.886089                         63   4
  161          rpro_isp                             10.482211                         63   4
  162            fftwav_mpi                            7.910311                     1512   5
  163              fft3d_mpi                             7.142092                   1512   6
  164                fftbas_plan_mpi                       7.137045                 1512   7
  165                  dfftw_execute                         3.465828               4536   8
  166                  map_forward                           2.869306               3024   8
  167                    map_gather                            0.724325             1512   9
  168                    m_alltoallv_z                         0.647272             1512   9
  169                    map_scatter                           0.928208             1512   9
  170            rpromu                                2.555919                      378   5
  171              crrexp_mul_wave                       1.279675                 235872   6
  172              rpromu_gemm                           0.837788                  58968   6
  173        fft3d_mpi                             0.072460                           22   3
  174          fftbas_plan_mpi                       0.070343                         22   4
  175            dfftw_execute                         0.012661                       66   5
  176            map_forward                           0.018202                       20   5
  177              map_gather                            0.000791                     10   6
  178              m_alltoallv_z                         0.015556                     10   6
  179              map_scatter                           0.001693                     10   6
  180            map_backward                          0.024381                       24   5
  181              map_gather                            0.001790                     12   6
  182              m_alltoallv_z                         0.020972                     12   6
  183              map_scatter                           0.001421                     12   6
  184        forhar                                0.155499                            2   3
  185        strehar                               0.005108                            1   3
  186        chggra                                0.012921                            1   3
  187          fft3d_mpi                             0.010987                          3   4
  188            fftbas_plan_mpi                       0.010650                        3   5
  189              dfftw_execute                         0.002605                      9   6
  190              map_forward                           0.004483                      4   6
  191                map_gather                            0.000142                    2   7
  192                m_alltoallv_z                         0.003964                    2   7
  193                map_scatter                           0.000342                    2   7
  194              map_backward                          0.001503                      2   6
  195                map_gather                            0.000122                    1   7
  196                m_alltoallv_z                         0.001252                    1   7
  197                map_scatter                           0.000109                    1   7
  198        brmix                                 0.016955                            1   3
  199          brpre                                 0.000070                          2   4
  200          setg0                                 0.001129                          1   4
  201          broyd                                 0.013028                          1   4
  202            brget                                 0.001639                      255   5
  203            brsav                                 0.000244                       46   5
 
 Flat profile
 ============
 
             routine name                   CPU           calls
 ---------------------------------------------------------------
 eddav                                 701.871737          46
 total_time                            328.778964           1
 dfftw_execute                         199.475262      261249
 redis_pw                              145.073321       79019
 orth1                                 104.026291       85599
 map_scatter                            56.315472       87253
 redis_proj                             52.479142       99782
 map_gather                             49.151839       87253
 fftbas_plan_mpi                        48.414075       87085
 m_alltoallv_z                          46.948227       87253
 fftwav_mpi                             41.484352       57290
 crrexp_mul_work_add                    40.352462     4442412
 racc0                                  38.014187       28477
 map_forward                            28.694796      115818
 rpro1                                  25.360487       20749
 vhamil                                 23.019348       28477
 crrexp_mul_wave                        19.439301     3577548
 lincom                                 15.746317         658
 phaser                                 10.357528         735
 force_and_stress                        7.853920           1
 w1_copy                                 6.963360       85431
 fftext_mpi                              5.223787       28477
 eccp                                    4.703024        7728
 pw_charge                               3.216642        5880
 kinhamil                                3.001876       28477
 setdij_                                 2.213775          70
 apply_precond                           1.716949       20749
 set_charge                              1.570325          42
 overl                                   1.480584       49240
 set_dd_paw                              1.408161          44
 rpromu_gemm                             1.235897       85176
 overl1                                  1.066066       28477
 setup_precond                           1.043216        7728
 rpromu                                  0.638275         546
 map_backward                            0.590120       58348
 soft_charge                             0.529911          42
 fft3d_mpi                               0.508213       87083
 rspher_all                              0.405417          14
 hamiltmu                                0.401217       28477
 choleski                                0.299137          14
 orthch                                  0.243798           1
 broyd                                   0.238899          42
 raccmu_                                 0.186427       28477
 forhar                                  0.155499           2
 depsum                                  0.146772          42
 w1_projall                              0.135538       20749
 brmix                                   0.097465          42
 forloc                                  0.086991           1
 setg0                                   0.048842          44
 strnlr                                  0.040820           1
 brget                                   0.031526        5187
 truncate_high_frequency_w1              0.027748       36205
 rpro_isp                                0.023784          91
 strkin                                  0.018281           1
 fornlr                                  0.016711           1
 brsav                                   0.011585        1079
 strehar                                 0.005108           1
 brpre                                   0.004797          84
 strelo                                  0.004115           1
 chggra                                  0.001934           1
 fordep                                  0.000484           1
 brgrid                                  0.000357           1
 redis_pw_over_bands                     0.000001           1
 ---------------------------------------------------------------
  summed up times    2022.60046005249     
 
 Accumulative profile
 ====================
 
             routine name                   CPU           calls
 ---------------------------------------------------------------
 total_time                           2022.600460           1
 eddav                                1621.192619          46
 fft3d_mpi                             430.035977       87083
 fftbas_plan_mpi                       429.589791       87085
 fftwav_mpi                            337.664021       57290
 hamiltmu                              240.560513       28477
 dfftw_execute                         199.475262      261249
 redis_pw                              145.073321       79019
 kinhamil                              137.520806       28477
 fftext_mpi                            134.518930       28477
 map_forward                           131.605658      115818
 orth1                                 104.026291       85599
 raccmu_                                79.619142       28477
 racc0                                  78.366649       28477
 map_scatter                            56.315472       87253
 redis_proj                             52.479142       99782
 map_backward                           50.094796       58348
 map_gather                             49.151839       87253
 m_alltoallv_z                          46.948227       87253
 w1_projall                             43.092472       20749
 rpro1                                  42.956933       20749
 crrexp_mul_work_add                    40.352462     4442412
 set_charge                             37.696484          42
 soft_charge                            35.692806          42
 force_and_stress                       25.547215           1
 vhamil                                 23.019348       28477
 crrexp_mul_wave                        19.439301     3577548
 lincom                                 15.746317         658
 rpro_isp                               15.235712          91
 strnlr                                 11.674445           1
 phaser                                 10.357528         735
 w1_copy                                 6.963360       85431
 eccp                                    4.703024        7728
 fornlr                                  3.914318           1
 rpromu                                  3.717026         546
 pw_charge                               3.216642        5880
 setdij_                                 2.213775          70
 orthch                                  1.726310           1
 apply_precond                           1.716949       20749
 overl                                   1.480584       49240
 set_dd_paw                              1.408161          44
 rpromu_gemm                             1.235897       85176
 overl1                                  1.066066       28477
 setup_precond                           1.043216        7728
 brmix                                   0.433114          42
 rspher_all                              0.405417          14
 choleski                                0.299137          14
 broyd                                   0.282010          42
 fordep                                  0.190354           1
 forhar                                  0.155499           2
 depsum                                  0.146772          42
 forloc                                  0.086991           1
 setg0                                   0.048842          44
 brget                                   0.031526        5187
 truncate_high_frequency_w1              0.027748       36205
 strkin                                  0.018281           1
 chggra                                  0.012921           1
 brsav                                   0.011585        1079
 strehar                                 0.005108           1
 brpre                                   0.004797          84
 strelo                                  0.004115           1
 brgrid                                  0.000357           1
 redis_pw_over_bands                     0.000001           1
 ---------------------------------------------------------------
 
Profiling took   5.462758  3.152450  0.012830  0.012477 seconds
Profiling took   6.360533 seconds
