       N       E                     dE             d eps       ncg     rms          rms(c)
DAV:   1     0.570798795761E+04    0.57080E+04   -0.26299E+05  3072   0.141E+03
DAV:   2    -0.191704443717E+03   -0.58997E+04   -0.56742E+04  4512   0.319E+02
DAV:   3    -0.125721843243E+04   -0.10655E+04   -0.10583E+04  3744   0.142E+02
DAV:   4    -0.129652848314E+04   -0.39310E+02   -0.39011E+02  4096   0.370E+01
DAV:   5    -0.129767208847E+04   -0.11436E+01   -0.11404E+01  4608   0.567E+00    0.879E+01
DAV:   6    -0.152070780869E+04   -0.22304E+03   -0.27625E+03  4288   0.896E+01    0.224E+02
DAV:   7    -0.141985092155E+04    0.10086E+03   -0.22440E+02  3552   0.306E+01    0.142E+02
DAV:   8    -0.115759592163E+04    0.26225E+03   -0.27669E+02  4288   0.881E+01    0.331E+01
DAV:   9    -0.116912638223E+04   -0.11530E+02   -0.93335E+01  3968   0.168E+01    0.203E+01
DAV:  10    -0.116542285359E+04    0.37035E+01   -0.15775E+01  4160   0.912E+00    0.132E+01
DAV:  11    -0.116671880088E+04   -0.12959E+01   -0.16890E+01  4352   0.977E+00    0.185E+01
DAV:  12    -0.116611854652E+04    0.60025E+00   -0.96679E+00  4320   0.111E+01    0.706E+00
DAV:  13    -0.116675033890E+04   -0.63179E+00   -0.96067E-01  4448   0.406E+00    0.414E+00
DAV:  14    -0.116725375030E+04   -0.50341E+00   -0.31320E-01  4256   0.211E+00    0.263E+00
DAV:  15    -0.116754953342E+04   -0.29578E+00   -0.98408E-02  4064   0.109E+00    0.158E+00
DAV:  16    -0.116777422360E+04   -0.22469E+00   -0.34226E-02  4384   0.757E-01    0.102E+00
DAV:  17    -0.116801943517E+04   -0.24521E+00   -0.47046E-02  4320   0.968E-01    0.652E-01
DAV:  18    -0.116825650062E+04   -0.23707E+00   -0.75954E-02  4320   0.102E+00    0.511E-01
DAV:  19    -0.116841533947E+04   -0.15884E+00   -0.61227E-02  4160   0.619E-01    0.807E-01
DAV:  20    -0.116844641416E+04   -0.31075E-01   -0.15914E-02  4256   0.394E-01    0.497E-01
DAV:  21    -0.116854530096E+04   -0.98887E-01   -0.11296E-02  3680   0.254E-01    0.451E-01
DAV:  22    -0.116872606178E+04   -0.18076E+00   -0.23123E-02  3840   0.290E-01    0.351E-01
DAV:  23    -0.116880668159E+04   -0.80620E-01   -0.65519E-03  4256   0.196E-01    0.198E-01
DAV:  24    -0.116884550726E+04   -0.38826E-01   -0.27370E-03  4256   0.174E-01    0.165E-01
DAV:  25    -0.116887524268E+04   -0.29735E-01   -0.27101E-03  3808   0.960E-02    0.111E-01
DAV:  26    -0.116888957342E+04   -0.14331E-01   -0.97735E-04  3904   0.704E-02    0.676E-02
DAV:  27    -0.116889871464E+04   -0.91412E-02   -0.57111E-04  4064   0.601E-02    0.662E-02
DAV:  28    -0.116890405723E+04   -0.53426E-02   -0.52109E-04  3840   0.635E-02    0.372E-02
DAV:  29    -0.116890644299E+04   -0.23858E-02   -0.31366E-04  3744   0.308E-02    0.322E-02
DAV:  30    -0.116890749879E+04   -0.10558E-02   -0.78705E-05  3808   0.183E-02    0.198E-02
DAV:  31    -0.116890830011E+04   -0.80132E-03   -0.60756E-05  3616   0.185E-02    0.117E-02
DAV:  32    -0.116890864257E+04   -0.34246E-03   -0.22167E-05  3616   0.729E-03    0.711E-03
DAV:  33    -0.116890886142E+04   -0.21885E-03   -0.97698E-06  3200   0.555E-03    0.374E-03
DAV:  34    -0.116890898312E+04   -0.12170E-03   -0.49131E-06  3168   0.424E-03    0.196E-03
DAV:  35    -0.116890903862E+04   -0.55501E-04   -0.20502E-06  2944   0.209E-03    0.173E-03
DAV:  36    -0.116890906203E+04   -0.23406E-04   -0.78639E-07  2528   0.133E-03    0.119E-03
DAV:  37    -0.116890907257E+04   -0.10543E-04   -0.34274E-07  2400   0.925E-04    0.964E-04
DAV:  38    -0.116890907732E+04   -0.47494E-05   -0.17173E-07  2464   0.898E-04    0.599E-04
DAV:  39    -0.116890908107E+04   -0.37495E-05   -0.12066E-07  2400   0.577E-04    0.355E-04
DAV:  40    -0.116890908357E+04   -0.25033E-05   -0.86708E-08  2368   0.526E-04    0.287E-04
DAV:  41    -0.116890908425E+04   -0.67653E-06   -0.30350E-08  2176   0.320E-04
   1 F= -.11786577E+04 E0= -.11786542E+04  d E =-.117866E+04  mag=    -0.0002
