 vasp.6.0.8 29Jun18 (build Mar 14 2019 11:44:20) complex                        
  
 executed on             LinuxIFC date 2020.12.29  19:55:24
 running  128 mpi-ranks, with    1 threads/rank
 distrk:  each k-point on  128 cores,    1 groups
 distr:  one band on NCORES_PER_BAND=   4 cores,   32 groups


--------------------------------------------------------------------------------------------------------


 INCAR:
 POTCAR:    PAW_PBE C 08Apr2002                   
 POTCAR:    PAW_PBE Co 02Aug2007                  
 POTCAR:    PAW_PBE H 15Jun2001                   
 POTCAR:    PAW_PBE N 08Apr2002                   
 POTCAR:    PAW_PBE O 08Apr2002                   
 POTCAR:    PAW_PBE C 08Apr2002                   
   VRHFIN =C: s2p2                                                              
   LEXCH  = PE                                                                  
   EATOM  =   147.1560 eV,   10.8157 Ry                                         
                                                                                
   TITEL  = PAW_PBE C 08Apr2002                                                 
   LULTRA =        F    use ultrasoft PP ?                                      
   IUNSCR =        1    unscreen: 0-lin 1-nonlin 2-no                           
   RPACOR =    1.200    partial core radius                                     
   POMASS =   12.011; ZVAL   =    4.000    mass and valenz                      
   RCORE  =    1.500    outmost cutoff radius                                   
   RWIGS  =    1.630; RWIGS  =    0.863    wigner-seitz radius (au A)           
   ENMAX  =  400.000; ENMIN  =  300.000 eV                                      
   ICORE  =        2    local potential                                         
   LCOR   =        T    correct aug charges                                     
   LPAW   =        T    paw PP                                                  
   EAUG   =  644.873                                                            
   DEXC   =    0.000                                                            
   RMAX   =    1.529    core radius for proj-oper                               
   RAUG   =    1.300    factor for augmentation sphere                          
   RDEP   =    1.501    radius for radial grids                                 
   RDEPT  =    1.300    core radius for aug-charge                              
                                                                                
   Atomic configuration                                                         
    4 entries                                                                   
     n  l   j            E        occ.                                          
     1  0  0.50      -273.3789   2.0000                                         
     2  0  0.50       -13.7508   2.0000                                         
     2  1  0.50        -5.2854   2.0000                                         
     3  2  1.50        -5.4423   0.0000                                         
   Description                                                                  
     l       E           TYP  RCUT    TYP  RCUT                                 
     0    -13.7508458     23  1.200                                             
     0     -8.2022199     23  1.200                                             
     1     -5.2854383     23  1.500                                             
     1     34.0145650     23  1.500                                             
     2     -5.4423304      7  1.500                                             
  local pseudopotential read in
  partial core-charges read in
  partial kinetic energy density read in
  atomic valenz-charges read in
  non local Contribution for L=           0  read in
    real space projection operators read in
  non local Contribution for L=           0  read in
    real space projection operators read in
  non local Contribution for L=           1  read in
    real space projection operators read in
  non local Contribution for L=           1  read in
    real space projection operators read in
    PAW grid and wavefunctions read in
 
   number of l-projection  operators is LMAX  =           4
   number of lm-projection operators is LMMAX =           8
 
 POTCAR:    PAW_PBE Co 02Aug2007                  
   VRHFIN =Co: d8 s1                                                            
   LEXCH  = PE                                                                  
   EATOM  =   813.3670 eV,   59.7808 Ry                                         
                                                                                
   TITEL  = PAW_PBE Co 02Aug2007                                                
   LULTRA =        F    use ultrasoft PP ?                                      
   IUNSCR =        1    unscreen: 0-lin 1-nonlin 2-no                           
   RPACOR =    2.000    partial core radius                                     
   POMASS =   58.933; ZVAL   =    9.000    mass and valenz                      
   RCORE  =    2.300    outmost cutoff radius                                   
   RWIGS  =    2.460; RWIGS  =    1.302    wigner-seitz radius (au A)           
   ENMAX  =  267.968; ENMIN  =  200.976 eV                                      
   RCLOC  =    1.203    cutoff for local pot                                    
   LCOR   =        T    correct aug charges                                     
   LPAW   =        T    paw PP                                                  
   EAUG   =  477.818                                                            
   DEXC   =    0.000                                                            
   RMAX   =    2.360    core radius for proj-oper                               
   RAUG   =    1.300    factor for augmentation sphere                          
   RDEP   =    2.393    radius for radial grids                                 
   RDEPT  =    1.864    core radius for aug-charge                              
                                                                                
   Atomic configuration                                                         
    9 entries                                                                   
     n  l   j            E        occ.                                          
     1  0  0.50     -7587.6674   2.0000                                         
     2  0  0.50      -893.6084   2.0000                                         
     2  1  1.50      -764.5805   6.0000                                         
     3  0  0.50       -97.5973   2.0000                                         
     3  1  1.50       -60.9648   6.0000                                         
     3  2  2.50        -4.2382   8.0000                                         
     4  0  0.50        -4.3746   1.0000                                         
     4  1  1.50        -4.0817   0.0000                                         
     4  3  2.50        -1.3606   0.0000                                         
   Description                                                                  
     l       E           TYP  RCUT    TYP  RCUT                                 
     2     -4.2382362     23  2.300                                             
     2     -5.5988188     23  2.300                                             
     0     -4.3745797     23  2.300                                             
     0      5.7660125     23  2.300                                             
     1     -2.7211652     23  2.300                                             
     1     16.9860234     23  2.300                                             
  local pseudopotential read in
  partial core-charges read in
  partial kinetic energy density read in
  atomic valenz-charges read in
  non local Contribution for L=           2  read in
    real space projection operators read in
  non local Contribution for L=           2  read in
    real space projection operators read in
  non local Contribution for L=           0  read in
    real space projection operators read in
  non local Contribution for L=           0  read in
    real space projection operators read in
  non local Contribution for L=           1  read in
    real space projection operators read in
  non local Contribution for L=           1  read in
    real space projection operators read in
    PAW grid and wavefunctions read in
 
   number of l-projection  operators is LMAX  =           6
   number of lm-projection operators is LMMAX =          18
 
 POTCAR:    PAW_PBE H 15Jun2001                   
   VRHFIN =H: ultrasoft test                                                    
   LEXCH  = PE                                                                  
   EATOM  =    12.4884 eV,    0.9179 Ry                                         
                                                                                
   TITEL  = PAW_PBE H 15Jun2001                                                 
   LULTRA =        F    use ultrasoft PP ?                                      
   IUNSCR =        0    unscreen: 0-lin 1-nonlin 2-no                           
   RPACOR =    0.000    partial core radius                                     
   POMASS =    1.000; ZVAL   =    1.000    mass and valenz                      
   RCORE  =    1.100    outmost cutoff radius                                   
   RWIGS  =    0.700; RWIGS  =    0.370    wigner-seitz radius (au A)           
   ENMAX  =  250.000; ENMIN  =  200.000 eV                                      
   RCLOC  =    0.701    cutoff for local pot                                    
   LCOR   =        T    correct aug charges                                     
   LPAW   =        T    paw PP                                                  
   EAUG   =  400.000                                                            
   RMAX   =    1.123    core radius for proj-oper                               
   RAUG   =    1.200    factor for augmentation sphere                          
   RDEP   =    1.112    radius for radial grids                                 
   RDEPT  =    0.926    core radius for aug-charge                              
                                                                                
   Atomic configuration                                                         
    2 entries                                                                   
     n  l   j            E        occ.                                          
     1  0  0.50        -6.4927   1.0000                                         
     2  1  0.50        -3.4015   0.0000                                         
   Description                                                                  
     l       E           TYP  RCUT    TYP  RCUT                                 
     0     -6.4927494     23  1.100                                             
     0      6.8029130     23  1.100                                             
     1     -4.0817478     23  1.100                                             
  local pseudopotential read in
  atomic valenz-charges read in
  non local Contribution for L=           0  read in
    real space projection operators read in
  non local Contribution for L=           0  read in
    real space projection operators read in
  non local Contribution for L=           1  read in
    real space projection operators read in
    PAW grid and wavefunctions read in
 
   number of l-projection  operators is LMAX  =           3
   number of lm-projection operators is LMMAX =           5
 
 POTCAR:    PAW_PBE N 08Apr2002                   
   VRHFIN =N: s2p3                                                              
   LEXCH  = PE                                                                  
   EATOM  =   264.5486 eV,   19.4438 Ry                                         
                                                                                
   TITEL  = PAW_PBE N 08Apr2002                                                 
   LULTRA =        F    use ultrasoft PP ?                                      
   IUNSCR =        1    unscreen: 0-lin 1-nonlin 2-no                           
   RPACOR =    1.200    partial core radius                                     
   POMASS =   14.001; ZVAL   =    5.000    mass and valenz                      
   RCORE  =    1.500    outmost cutoff radius                                   
   RWIGS  =    1.400; RWIGS  =    0.741    wigner-seitz radius (au A)           
   ENMAX  =  400.000; ENMIN  =  300.000 eV                                      
   ICORE  =        2    local potential                                         
   LCOR   =        T    correct aug charges                                     
   LPAW   =        T    paw PP                                                  
   EAUG   =  627.112                                                            
   DEXC   =    0.000                                                            
   RMAX   =    1.529    core radius for proj-oper                               
   RAUG   =    1.300    factor for augmentation sphere                          
   RDEP   =    1.514    radius for radial grids                                 
   RDEPT  =    1.338    core radius for aug-charge                              
                                                                                
   Atomic configuration                                                         
    4 entries                                                                   
     n  l   j            E        occ.                                          
     1  0  0.50      -384.7179   2.0000                                         
     2  0  0.50       -18.5828   2.0000                                         
     2  1  0.50        -7.0898   3.0000                                         
     3  2  1.50        -6.8029   0.0000                                         
   Description                                                                  
     l       E           TYP  RCUT    TYP  RCUT                                 
     0    -18.5828119     23  1.200                                             
     0    -13.5018863     23  1.200                                             
     1     -7.0897853     23  1.500                                             
     1      9.5240782     23  1.500                                             
     2     -6.8029130      7  1.500                                             
  local pseudopotential read in
  partial core-charges read in
  partial kinetic energy density read in
  atomic valenz-charges read in
  non local Contribution for L=           0  read in
    real space projection operators read in
  non local Contribution for L=           0  read in
    real space projection operators read in
  non local Contribution for L=           1  read in
    real space projection operators read in
  non local Contribution for L=           1  read in
    real space projection operators read in
    PAW grid and wavefunctions read in
 
   number of l-projection  operators is LMAX  =           4
   number of lm-projection operators is LMMAX =           8
 
 POTCAR:    PAW_PBE O 08Apr2002                   
   VRHFIN =O: s2p4                                                              
   LEXCH  = PE                                                                  
   EATOM  =   432.3788 eV,   31.7789 Ry                                         
                                                                                
   TITEL  = PAW_PBE O 08Apr2002                                                 
   LULTRA =        F    use ultrasoft PP ?                                      
   IUNSCR =        1    unscreen: 0-lin 1-nonlin 2-no                           
   RPACOR =    1.200    partial core radius                                     
   POMASS =   16.000; ZVAL   =    6.000    mass and valenz                      
   RCORE  =    1.520    outmost cutoff radius                                   
   RWIGS  =    1.550; RWIGS  =    0.820    wigner-seitz radius (au A)           
   ENMAX  =  400.000; ENMIN  =  300.000 eV                                      
   ICORE  =        2    local potential                                         
   LCOR   =        T    correct aug charges                                     
   LPAW   =        T    paw PP                                                  
   EAUG   =  605.392                                                            
   DEXC   =    0.000                                                            
   RMAX   =    1.553    core radius for proj-oper                               
   RAUG   =    1.300    factor for augmentation sphere                          
   RDEP   =    1.550    radius for radial grids                                 
   RDEPT  =    1.329    core radius for aug-charge                              
                                                                                
   Atomic configuration                                                         
    4 entries                                                                   
     n  l   j            E        occ.                                          
     1  0  0.50      -514.6923   2.0000                                         
     2  0  0.50       -23.9615   2.0000                                         
     2  1  0.50        -9.0305   4.0000                                         
     3  2  1.50        -9.5241   0.0000                                         
   Description                                                                  
     l       E           TYP  RCUT    TYP  RCUT                                 
     0    -23.9615318     23  1.200                                             
     0     -9.5240782     23  1.200                                             
     1     -9.0304911     23  1.520                                             
     1      8.1634956     23  1.520                                             
     2     -9.5240782      7  1.500                                             
  local pseudopotential read in
  partial core-charges read in
  partial kinetic energy density read in
  kinetic energy density of atom read in
  atomic valenz-charges read in
  non local Contribution for L=           0  read in
    real space projection operators read in
  non local Contribution for L=           0  read in
    real space projection operators read in
  non local Contribution for L=           1  read in
    real space projection operators read in
  non local Contribution for L=           1  read in
    real space projection operators read in
    PAW grid and wavefunctions read in
 
   number of l-projection  operators is LMAX  =           4
   number of lm-projection operators is LMMAX =           8
 
 Optimization of the real space projectors (new method)

 maximal supplied QI-value         = 25.13
 optimisation between [QCUT,QGAM] = [ 12.32, 24.88] = [ 42.47,173.37] Ry 
 Optimized for a Real-space Cutoff    1.06 Angstroem

   l    n(q)    QCUT    max X(q) W(low)/X(q) W(high)/X(q)  e(spline) 
   0      8    12.315   115.676    0.34E-03    0.18E-03    0.23E-06
   0      8    12.315    87.132    0.34E-03    0.18E-03    0.22E-06
   1      7    12.315     4.429    0.45E-03    0.12E-03    0.18E-06
   1      7    12.315     2.733    0.35E-03    0.97E-04    0.15E-06
 Optimization of the real space projectors (new method)

 maximal supplied QI-value         = 16.25
 optimisation between [QCUT,QGAM] = [ 12.51, 25.03] = [ 43.85,175.40] Ry 
 Optimized for a Real-space Cutoff    1.31 Angstroem

   l    n(q)    QCUT    max X(q) W(low)/X(q) W(high)/X(q)  e(spline) 
   2      9    12.514    65.824    0.30E-03    0.46E-03    0.43E-06
   2      9    12.514    61.429    0.31E-03    0.46E-03    0.44E-06
   0     10    12.514    56.174    0.90E-04    0.33E-03    0.30E-06
   0     10    12.514    31.263    0.81E-04    0.30E-03    0.28E-06
   1      9    12.514    19.828    0.38E-03    0.65E-04    0.24E-06
   1      9    12.514    15.139    0.32E-03    0.60E-04    0.20E-06
 Optimization of the real space projectors (new method)

 maximal supplied QI-value         = 34.20
 optimisation between [QCUT,QGAM] = [ 12.31, 24.97] = [ 42.46,174.58] Ry 
 Optimized for a Real-space Cutoff    1.00 Angstroem

   l    n(q)    QCUT    max X(q) W(low)/X(q) W(high)/X(q)  e(spline) 
   0      7    12.313    19.460    0.14E-03    0.42E-03    0.16E-06
   0      7    12.313    12.209    0.12E-03    0.40E-03    0.16E-06
   1      7    12.313     4.655    0.33E-03    0.59E-03    0.89E-07
 Optimization of the real space projectors (new method)

 maximal supplied QI-value         = 25.13
 optimisation between [QCUT,QGAM] = [ 12.32, 24.88] = [ 42.47,173.37] Ry 
 Optimized for a Real-space Cutoff    1.20 Angstroem

   l    n(q)    QCUT    max X(q) W(low)/X(q) W(high)/X(q)  e(spline) 
   0      9    12.315    79.467    0.14E-03    0.22E-04    0.37E-06
   0      9    12.315    66.151    0.14E-03    0.23E-04    0.36E-06
   1      8    12.315    22.077    0.30E-03    0.54E-03    0.45E-06
   1      8    12.315    15.894    0.30E-03    0.55E-03    0.45E-06
 Optimization of the real space projectors (new method)

 maximal supplied QI-value         = 24.76
 optimisation between [QCUT,QGAM] = [ 12.38, 25.00] = [ 42.90,175.06] Ry 
 Optimized for a Real-space Cutoff    1.13 Angstroem

   l    n(q)    QCUT    max X(q) W(low)/X(q) W(high)/X(q)  e(spline) 
   0      8    12.378    20.381    0.16E-03    0.54E-05    0.27E-06
   0      8    12.378    15.268    0.17E-03    0.61E-05    0.29E-06
   1      8    12.378     5.964    0.38E-03    0.23E-03    0.28E-06
   1      8    12.378     5.382    0.33E-03    0.20E-03    0.25E-06
  PAW_PBE C 08Apr2002                   :
 energy of atom  1       EATOM= -147.1560
 kinetic energy error for atom=    0.0057 (will be added to EATOM!!)
  PAW_PBE Co 02Aug2007                  :
 energy of atom  2       EATOM= -813.3670
 kinetic energy error for atom=    0.0018 (will be added to EATOM!!)
  PAW_PBE H 15Jun2001                   :
 energy of atom  3       EATOM=  -12.4884
 kinetic energy error for atom=    0.0004 (will be added to EATOM!!)
  PAW_PBE N 08Apr2002                   :
 energy of atom  4       EATOM= -264.5486
 kinetic energy error for atom=    0.0103 (will be added to EATOM!!)
  PAW_PBE O 08Apr2002                   :
 energy of atom  5       EATOM= -432.3788
 kinetic energy error for atom=    0.0168 (will be added to EATOM!!)
 
 
 POSCAR: CoH_exp10
  positions in direct lattice
  velocities in cartesian coordinates
 exchange correlation table for  LEXCH =        8
   RHO(1)=    0.500       N(1)  =     2000
   RHO(2)=  100.500       N(2)  =     4000
 


--------------------------------------------------------------------------------------------------------


 ion  position               nearest neighbor table
   1  0.906  0.968  0.122- 107 1.08 117 1.35  65 1.40
   2  0.929  0.979  0.416- 112 1.08 118 1.35  65 1.40
   3  0.906  0.812  0.931- 116 1.08 119 1.35  66 1.40
   4  0.594  0.468  0.622- 110 1.08 120 1.35  67 1.40
   5  0.571  0.301  0.137- 111 1.08 121 1.35  68 1.40
   6  0.071  0.801  0.136- 115 1.08 122 1.35  69 1.40
   7  0.571  0.479  0.916- 101 1.08 123 1.35  67 1.40
   8  0.594  0.312  0.431- 113 1.08 124 1.35  68 1.40
   9  0.429  0.479  0.416- 114 1.08 125 1.35  70 1.40
  10  0.094  0.812  0.431- 104 1.08 126 1.35  69 1.40
  11  0.071  0.979  0.916- 105 1.08 127 1.35  71 1.40
  12  0.429  0.301  0.637- 102 1.08 128 1.35  72 1.40
  13  0.929  0.801  0.637- 108 1.08 129 1.35  66 1.40
  14  0.094  0.968  0.622- 109 1.08 130 1.35  71 1.40
  15  0.406  0.312  0.931- 106 1.08 131 1.35  72 1.40
  16  0.406  0.468  0.122- 103 1.08 132 1.35  70 1.40
  17  0.821  0.038  0.439- 141 1.23 133 1.42  33 1.49
  18  0.845  0.077  0.105- 142 1.23 133 1.42  34 1.49
  19  0.844  0.704  0.949- 143 1.23 134 1.42  35 1.48
  20  0.655  0.577  0.605- 144 1.23 135 1.42  36 1.49
  21  0.656  0.204  0.449- 145 1.23 136 1.42  37 1.48
  22  0.179  0.742  0.114- 146 1.23 137 1.42  38 1.49
  23  0.679  0.538  0.939- 147 1.23 135 1.42  39 1.48
  24  0.680  0.242  0.115- 148 1.23 136 1.42  40 1.49
  25  0.321  0.538  0.438- 149 1.23 138 1.42  41 1.48
  26  0.155  0.703  0.448- 150 1.23 137 1.42  42 1.48
  27  0.155  0.077  0.604- 151 1.23 139 1.42  43 1.49
  28  0.344  0.204  0.948- 152 1.23 140 1.42  44 1.48
  29  0.820  0.742  0.615- 153 1.23 134 1.42  45 1.48
  30  0.179  0.038  0.939- 154 1.23 139 1.42  46 1.49
  31  0.320  0.242  0.614- 155 1.23 140 1.42  47 1.49
  32  0.345  0.576  0.104- 156 1.23 138 1.42  48 1.49
  33  0.779  0.081  0.438-  49 1.39  73 1.41  17 1.49
  34  0.803  0.119  0.111-  50 1.39  73 1.41  18 1.49
  35  0.802  0.662  0.942-  51 1.39  74 1.41  19 1.48
  36  0.697  0.619  0.611-  52 1.39  75 1.41  20 1.49
  37  0.698  0.162  0.442-  53 1.39  76 1.41  21 1.48
  38  0.222  0.699  0.115-  54 1.39  77 1.41  22 1.49
  39  0.721  0.581  0.938-  55 1.39  75 1.41  23 1.48
  40  0.722  0.200  0.116-  56 1.39  76 1.41  24 1.49
  41  0.279  0.581  0.437-  57 1.39  78 1.41  25 1.48
  42  0.198  0.661  0.441-  58 1.39  77 1.41  26 1.48
  43  0.197  0.119  0.611-  59 1.39  79 1.41  27 1.49
  44  0.302  0.162  0.942-  60 1.39  80 1.41  28 1.48
  45  0.778  0.700  0.616-  61 1.39  74 1.41  29 1.48
  46  0.221  0.081  0.937-  62 1.39  79 1.41  30 1.49
  47  0.278  0.200  0.616-  63 1.39  80 1.41  31 1.49
  48  0.303  0.619  0.111-  64 1.39  78 1.41  32 1.49
  49  0.747  0.083  0.597-  88 1.09  33 1.39  53 1.41
  50  0.795  0.158  0.954-  99 1.09  34 1.39  56 1.41
  51  0.793  0.623  0.100-  93 1.09  35 1.39  55 1.41
  52  0.706  0.658  0.454-  90 1.09  36 1.39  61 1.41
  53  0.707  0.123  0.600-  98 1.09  37 1.39  49 1.41
  54  0.254  0.698  0.955-  96 1.09  38 1.39  64 1.41
  55  0.753  0.583  0.097-  86 1.09  39 1.39  51 1.41
  56  0.754  0.198  0.956-  87 1.09  40 1.39  50 1.41
  57  0.246  0.582  0.596-  95 1.09  41 1.39  58 1.41
  58  0.206  0.622  0.598-  91 1.09  42 1.39  57 1.41
  59  0.206  0.158  0.454-  92 1.09  43 1.39  63 1.41
  60  0.293  0.123  0.099-  85 1.09  44 1.39  62 1.41
  61  0.746  0.698  0.456-  89 1.09  45 1.39  52 1.41
  62  0.253  0.083  0.097- 100 1.09  46 1.39  60 1.41
  63  0.246  0.198  0.456-  94 1.09  47 1.39  59 1.41
  64  0.294  0.658  0.953-  97 1.09  48 1.39  54 1.41
  65  0.893  0.998  0.269-   2 1.40   1 1.40 133 1.42
  66  0.893  0.782  0.784-  13 1.40   3 1.40 134 1.42
  67  0.607  0.498  0.769-   7 1.40   4 1.40 135 1.42
  68  0.607  0.282  0.284-   5 1.40   8 1.40 136 1.42
  69  0.107  0.782  0.283-   6 1.40  10 1.40 137 1.42
  70  0.393  0.498  0.269-   9 1.40  16 1.40 138 1.42
  71  0.107  0.998  0.769-  11 1.40  14 1.40 139 1.42
  72  0.393  0.282  0.784-  12 1.40  15 1.40 140 1.42
  73  0.771  0.120  0.276-  34 1.41  33 1.41  76 1.43
  74  0.770  0.661  0.778-  35 1.41  45 1.41  75 1.43
  75  0.729  0.620  0.776-  36 1.41  39 1.41  74 1.43
  76  0.730  0.161  0.278-  37 1.41  40 1.41  73 1.43
  77  0.230  0.660  0.277-  42 1.41  38 1.41  78 1.43
  78  0.271  0.620  0.275-  48 1.41  41 1.41  77 1.43
  79  0.229  0.120  0.775-  43 1.41  46 1.41  80 1.43
  80  0.270  0.161  0.778-  44 1.41  47 1.41  79 1.43
  81  0.992  0.890  0.026- 127 1.97 119 1.97 122 1.97 117 1.97
  82  0.008  0.890  0.526- 118 1.97 129 1.97 126 1.97 130 1.97
  83  0.508  0.390  0.527- 125 1.97 128 1.97 124 1.97 120 1.97
  84  0.492  0.390  0.027- 123 1.97 121 1.97 131 1.97 132 1.97
  85  0.319  0.124  0.224-  60 1.09
  86  0.746  0.552  0.221-  55 1.09
  87  0.747  0.228  0.833-  56 1.09
  88  0.754  0.052  0.721-  49 1.09
  89  0.753  0.728  0.333-  61 1.09
  90  0.680  0.656  0.329-  52 1.09
  91  0.181  0.624  0.723-  58 1.09
  92  0.180  0.156  0.329-  59 1.09
  93  0.818  0.624  0.225-  51 1.09
  94  0.253  0.228  0.333-  63 1.09
  95  0.253  0.552  0.719-  57 1.09
  96  0.247  0.728  0.832-  54 1.09
  97  0.319  0.656  0.829-  64 1.09
  98  0.681  0.124  0.724-  53 1.09
  99  0.820  0.156  0.829-  50 1.09
 100  0.246  0.052  0.220-  62 1.09
 101  0.567  0.491  0.057-   7 1.08
 102  0.432  0.289  0.496-  12 1.08
 103  0.389  0.470  0.981-  16 1.08
 104  0.111  0.810  0.572-  10 1.08
 105  0.067  0.991  0.057-  11 1.08
 106  0.389  0.310  0.072-  15 1.08
 107  0.889  0.970  0.981-   1 1.08
 108  0.932  0.789  0.496-  13 1.08
 109  0.111  0.970  0.481-  14 1.08
 110  0.611  0.470  0.480-   4 1.08
 111  0.568  0.289  0.996-   5 1.08
 112  0.933  0.991  0.557-   2 1.08
 113  0.611  0.310  0.572-   8 1.08
 114  0.433  0.491  0.557-   9 1.08
 115  0.067  0.789  0.996-   6 1.08
 116  0.889  0.810  0.072-   3 1.08
 117  0.947  0.933  0.179-   1 1.35 118 1.37  81 1.97
 118  0.961  0.940  0.360-   2 1.35 117 1.37  82 1.97
 119  0.947  0.847  0.874-   3 1.35 129 1.37  81 1.97
 120  0.553  0.433  0.679-   4 1.35 123 1.37  83 1.97
 121  0.539  0.339  0.193-   5 1.35 124 1.37  84 1.97
 122  0.039  0.839  0.192-   6 1.35 126 1.37  81 1.97
 123  0.539  0.440  0.860-   7 1.35 120 1.37  84 1.97
 124  0.553  0.347  0.374-   8 1.35 121 1.37  83 1.97
 125  0.461  0.440  0.360-   9 1.35 132 1.37  83 1.97
 126  0.053  0.847  0.374-  10 1.35 122 1.37  82 1.97
 127  0.039  0.940  0.860-  11 1.35 130 1.37  81 1.97
 128  0.461  0.339  0.693-  12 1.35 131 1.37  83 1.97
 129  0.961  0.839  0.693-  13 1.35 119 1.37  82 1.97
 130  0.053  0.933  0.679-  14 1.35 127 1.37  82 1.97
 131  0.447  0.347  0.874-  15 1.35 128 1.37  84 1.97
 132  0.447  0.433  0.179-  16 1.35 125 1.37  84 1.97
 133  0.853  0.039  0.271-  18 1.42  17 1.42  65 1.42
 134  0.852  0.742  0.783-  19 1.42  29 1.42  66 1.42
 135  0.647  0.539  0.771-  20 1.42  23 1.42  67 1.42
 136  0.648  0.242  0.283-  21 1.42  24 1.42  68 1.42
 137  0.148  0.742  0.282-  26 1.42  22 1.42  69 1.42
 138  0.352  0.538  0.270-  32 1.42  25 1.42  70 1.42
 139  0.148  0.038  0.770-  27 1.42  30 1.42  71 1.42
 140  0.352  0.242  0.782-  28 1.42  31 1.42  72 1.42
 141  0.829  0.004  0.578-  17 1.23
 142  0.873  0.074  0.963-  18 1.23
 143  0.872  0.706  0.091-  19 1.23
 144  0.627  0.574  0.462-  20 1.23
 145  0.628  0.206  0.590-  21 1.23
 146  0.171  0.776  0.975-  22 1.23
 147  0.671  0.504  0.078-  23 1.23
 148  0.672  0.276  0.976-  24 1.23
 149  0.329  0.504  0.577-  25 1.23
 150  0.127  0.706  0.590-  26 1.23
 151  0.127  0.074  0.462-  27 1.23
 152  0.372  0.206  0.090-  28 1.23
 153  0.828  0.776  0.476-  29 1.23
 154  0.171  0.004  0.078-  30 1.23
 155  0.328  0.276  0.475-  31 1.23
 156  0.373  0.574  0.963-  32 1.23
 

IMPORTANT INFORMATION: All symmetrisations will be switched off!
NOSYMM: (Re-)initialisation of all symmetry stuff for point group C_1.


----------------------------------------------------------------------------------------

                                     Primitive cell                                     

  volume of cell :    4310.7208

  direct lattice vectors                    reciprocal lattice vectors
    24.627743989 -0.000295625 -0.000827262     0.040604612 -0.000000446 -0.000001902
     0.000403213 24.631177658  2.834164489     0.000000458  0.040702480 -0.000899741
     0.000335477  0.157486360  7.124364531     0.000004533 -0.016191974  0.140721325

  length of vectors
    24.627744005 24.793696807  7.126104970     0.040604612  0.040712423  0.141649819

  position of ions in fractional coordinates (direct lattice)
     0.906299794  0.967849303  0.121828149
     0.929258433  0.979065741  0.416329507
     0.905856481  0.812286732  0.931129191
     0.593665987  0.467786832  0.621751232
     0.571291787  0.300798487  0.136837774
     0.071087705  0.800720308  0.136287872
     0.570780346  0.479049994  0.916304214
     0.594143626  0.312346033  0.431129252
     0.429072325  0.478991517  0.416216223
     0.094027885  0.812062412  0.430686857
     0.070824018  0.979018974  0.916128518
     0.428679913  0.300801477  0.636650228
     0.928697962  0.800735339  0.636821329
     0.093774573  0.967648705  0.621742963
     0.405783999  0.312320350  0.930927641
     0.406141344  0.467572047  0.121867422
     0.821379202  0.038330055  0.438960200
     0.845415723  0.076709286  0.104816977
     0.844471409  0.703708526  0.948694846
     0.654681167  0.576589867  0.604567671
     0.655531090  0.203787413  0.448595013
     0.179284156  0.741895387  0.113578121
     0.678637294  0.538255450  0.938854657
     0.679700594  0.242328333  0.114576191
     0.320977260  0.537959197  0.438324536
     0.155131098  0.703382694  0.447595250
     0.154705504  0.076534521  0.604377788
     0.344484921  0.203758614  0.948210387
     0.820299978  0.742256510  0.614711075
     0.178738073  0.038196010  0.938595739
     0.320272592  0.242308976  0.614223942
     0.345204919  0.576439089  0.104404639
     0.779027297  0.081014526  0.437611816
     0.802982894  0.118976751  0.111410692
     0.801874936  0.661608180  0.942283760
     0.697072833  0.618884207  0.611316467
     0.698136073  0.161691767  0.442243660
     0.221737648  0.699292029  0.115060649
     0.720993004  0.580929649  0.937572062
     0.722149167  0.199731609  0.116043207
     0.278529034  0.580550713  0.436655221
     0.197624794  0.661195140  0.441062287
     0.197091016  0.118846094  0.611066729
     0.301935464  0.161614394  0.941802930
     0.777862029  0.699659652  0.616126005
     0.221096177  0.080881950  0.937207522
     0.277851738  0.199682933  0.615698457
     0.302674390  0.618619788  0.110706440
     0.746970113  0.082726013  0.597392809
     0.794519317  0.157916116  0.954204430
     0.793337596  0.622705694  0.099546238
     0.705523470  0.657844963  0.454159370
     0.706660789  0.122783554  0.599519390
     0.253906081  0.697619570  0.955486363
     0.753032883  0.582647218  0.097388302
     0.754263284  0.198024906  0.956359700
     0.246358492  0.582180428  0.596204920
     0.206047228  0.622231060  0.598245189
     0.205502386  0.157820031  0.453920980
     0.293452570  0.122681078  0.099024590
     0.745753402  0.697972912  0.456426074
     0.253169864  0.082599343  0.096933602
     0.245712159  0.197975642  0.456089195
     0.294224876  0.657562894  0.953489136
     0.893439109  0.997949048  0.269034569
     0.892761633  0.782199115  0.784146257
     0.606581233  0.497893187  0.768892111
     0.607252711  0.282286018  0.284083036
     0.107023578  0.782038730  0.283419459
     0.393214716  0.497717651  0.268872090
     0.106671617  0.997793072  0.768791605
     0.392702694  0.282274486  0.783817876
     0.770957356  0.119990825  0.275664755
     0.769828448  0.660657839  0.778029496
     0.729080868  0.619895934  0.775613453
     0.730195952  0.160747296  0.278001239
     0.229740005  0.660277494  0.276942565
     0.270539987  0.619557489  0.274747475
     0.229124679  0.119876490  0.775288329
     0.269860511  0.160663086  0.777600826
     0.992086869  0.889773959  0.026419089
     0.007873857  0.889676601  0.526457757
     0.507827889  0.389746480  0.526594729
     0.492113573  0.389719563  0.026589199
     0.318638218  0.124149827  0.223946317
     0.745910787  0.552356214  0.220727301
     0.747206349  0.228314467  0.832964472
     0.754076911  0.052416873  0.720692339
     0.752798836  0.728293146  0.333100456
     0.680404432  0.656302410  0.329120213
     0.180836165  0.623689916  0.723119028
     0.180347821  0.156277308  0.328970238
     0.818499356  0.624184793  0.224519855
     0.252719052  0.228308633  0.332780208
     0.253421579  0.551859343  0.719496856
     0.246854816  0.727910815  0.832090630
     0.319453410  0.656082821  0.828668644
     0.681473816  0.124247905  0.724453986
     0.819650199  0.156371038  0.829184220
     0.246089069  0.052292207  0.220255686
     0.567172020  0.490677665  0.056957844
     0.432232162  0.289075584  0.496119743
     0.389155436  0.469722833  0.980639135
     0.111023924  0.809913605  0.571880700
     0.067187127  0.990683152  0.056718112
     0.388779039  0.310272959  0.072080570
     0.889323127  0.970088264  0.980547762
     0.932231122  0.788982126  0.496314008
     0.110756750  0.969823194  0.480500948
     0.610619380  0.470000799  0.480448433
     0.567769215  0.289050208  0.996328892
     0.932919356  0.990671896  0.556978473
     0.611120880  0.310296079  0.572322760
     0.432705249  0.490688804  0.556764457
     0.067498144  0.789055328  0.995684142
     0.888907298  0.810245380  0.072358402
     0.947063238  0.933081248  0.179062898
     0.961304456  0.940151153  0.360360774
     0.946879579  0.846708432  0.873807330
     0.552884948  0.433052965  0.679114870
     0.538914591  0.339481840  0.192700353
     0.038824834  0.839449841  0.192429073
     0.538690238  0.440151505  0.860442412
     0.553090185  0.346741462  0.373908013
     0.461208550  0.440115756  0.360413215
     0.053053614  0.846584948  0.373695772
     0.038725222  0.940123472  0.860295231
     0.461043061  0.339482967  0.692598777
     0.961051923  0.839450299  0.692596610
     0.052954393  0.932960463  0.679069057
     0.446842973  0.346722310  0.873806073
     0.446987668  0.432925468  0.179213989
     0.852609825  0.038598749  0.270790559
     0.851699073  0.741775939  0.782644726
     0.647434070  0.538520328  0.770606639
     0.648324987  0.241874007  0.282560686
     0.147973151  0.741514132  0.281662439
     0.352303859  0.538293175  0.270357745
     0.147529336  0.038424485  0.770383815
     0.351657675  0.241847784  0.782188190
     0.829319639  0.004212650  0.578023522
     0.873084786  0.074388234  0.962694149
     0.872285450  0.705908000  0.090573852
     0.627096730  0.574220715  0.462295879
     0.627703112  0.205983912  0.590440679
     0.171300680  0.776014597  0.974581137
     0.670664049  0.504147687  0.077911717
     0.671742755  0.276482185  0.975640394
     0.328920866  0.503880393  0.577499088
     0.127376046  0.705631869  0.589575703
     0.127066001  0.074190843  0.462201592
     0.372298062  0.205992197  0.090070678
     0.828241884  0.776432276  0.475835355
     0.170768295  0.004112549  0.077732563
     0.328201671  0.276487434  0.475337436
     0.373037538  0.574198572  0.962596986

  ion indices of the primitive-cell ions
   primitive index   ion index
                 1           1
                 2           2
                 3           3
                 4           4
                 5           5
                 6           6
                 7           7
                 8           8
                 9           9
                10          10
                11          11
                12          12
                13          13
                14          14
                15          15
                16          16
                17          17
                18          18
                19          19
                20          20
                21          21
                22          22
                23          23
                24          24
                25          25
                26          26
                27          27
                28          28
                29          29
                30          30
                31          31
                32          32
                33          33
                34          34
                35          35
                36          36
                37          37
                38          38
                39          39
                40          40
                41          41
                42          42
                43          43
                44          44
                45          45
                46          46
                47          47
                48          48
                49          49
                50          50
                51          51
                52          52
                53          53
                54          54
                55          55
                56          56
                57          57
                58          58
                59          59
                60          60
                61          61
                62          62
                63          63
                64          64
                65          65
                66          66
                67          67
                68          68
                69          69
                70          70
                71          71
                72          72
                73          73
                74          74
                75          75
                76          76
                77          77
                78          78
                79          79
                80          80
                81          81
                82          82
                83          83
                84          84
                85          85
                86          86
                87          87
                88          88
                89          89
                90          90
                91          91
                92          92
                93          93
                94          94
                95          95
                96          96
                97          97
                98          98
                99          99
               100         100
               101         101
               102         102
               103         103
               104         104
               105         105
               106         106
               107         107
               108         108
               109         109
               110         110
               111         111
               112         112
               113         113
               114         114
               115         115
               116         116
               117         117
               118         118
               119         119
               120         120
               121         121
               122         122
               123         123
               124         124
               125         125
               126         126
               127         127
               128         128
               129         129
               130         130
               131         131
               132         132
               133         133
               134         134
               135         135
               136         136
               137         137
               138         138
               139         139
               140         140
               141         141
               142         142
               143         143
               144         144
               145         145
               146         146
               147         147
               148         148
               149         149
               150         150
               151         151
               152         152
               153         153
               154         154
               155         155
               156         156

----------------------------------------------------------------------------------------

 
 

Automatic generation of k-mesh.
 generate k-points for:    1    1    3
Space group operators:
 irot       det(A)        alpha          n_x          n_y          n_z        tau_x        tau_y        tau_z
    1     1.000000     0.000000     1.000000     0.000000     0.000000     0.000000     0.000000     0.000000
 
 Subroutine IBZKPT returns following result:
 ===========================================
 
 Found      2 irreducible k-points:
 
 Following reciprocal coordinates:
            Coordinates               Weight
  0.000000  0.000000  0.000000      1.000000
  0.000000  0.000000  0.333333      2.000000
 
 Following cartesian coordinates:
            Coordinates               Weight
  0.000000  0.000000  0.000000      1.000000
  0.000002 -0.005397  0.046907      2.000000
 


--------------------------------------------------------------------------------------------------------




 Dimension of arrays:
   k-points           NKPTS =      2   k-points in BZ     NKDIM =      2   number of bands    NBANDS=    384
   number of dos      NEDOS =    301   number of ions     NIONS =    156
   non local maximal  LDIM  =      6   non local SUM 2l+1 LMDIM =     18
   total plane-waves  NPLWV = ******
   max r-space proj   IRMAX =   2391   max aug-charges    IRDMAX=  10079
   dimension x,y,z NGX =   150 NGY =  150 NGZ =   48
   dimension x,y,z NGXF=   300 NGYF=  300 NGZF=   96
   support grid    NGXF=   300 NGYF=  300 NGZF=   96
   ions per type =              80   4  32  24  16
   NGX,Y,Z   is equivalent  to a cutoff of  10.13, 10.06, 11.20 a.u.
   NGXF,Y,Z  is equivalent  to a cutoff of  20.25, 20.12, 22.40 a.u.

 SYSTEM =  flex_MOF                                
 POSCAR =  CoH_exp10                               

 Startparameter for this run:
   NWRITE =      2    write-flag & timer
   PREC   = normal    normal or accurate (medium, high low for compatibility)
   ISTART =      0    job   : 0-new  1-cont  2-samecut
   ICHARG =      2    charge: 1-file 2-atom 10-const
   ISPIN  =      2    spin polarized calculation?
   LNONCOLLINEAR =      F non collinear calculations
   LSORBIT =      F    spin-orbit coupling
   INIWAV =      1    electr: 0-lowe 1-rand  2-diag
   LASPH  =      F    aspherical Exc in radial PAW
   METAGGA=      F    non-selfconsistent MetaGGA calc.

 Electronic Relaxation 1
   ENCUT  =  600.0 eV  44.10 Ry    6.64 a.u.  49.19 49.52 14.23*2*pi/ulx,y,z
   ENINI  =  600.0     initial cutoff
   ENAUG  =  644.9 eV  augmentation charge cutoff
   NELM   =     80;   NELMIN=  8; NELMDL= -5     # of ELM steps 
   EDIFF  = 0.1E-05   stopping-criterion for ELM
   LREAL  =      T    real-space projection
   NLSPLINE    = F    spline interpolate recip. space projectors
   LCOMPAT=      F    compatible to vasp.4.4
   GGA_COMPAT  = T    GGA compatible to vasp.4.4-vasp.4.6
   LMAXPAW     = -100 max onsite density
   LMAXMIX     =    2 max onsite mixed and CHGCAR
   VOSKOWN=      0    Vosko Wilk Nusair interpolation
   ROPT   =   -0.00050  -0.00050  -0.00050  -0.00050
   ROPT   =   -0.00050
 Ionic relaxation
   EDIFFG = -.1E-01   stopping-criterion for IOM
   NSW    =    500    number of steps for IOM
   NBLOCK =      1;   KBLOCK =    500    inner block; outer block 
   IBRION =      2    ionic relax: 0-MD 1-quasi-New 2-CG
   NFREE  =      1    steps in history (QN), initial steepest desc. (CG)
   ISIF   =      4    stress and relaxation
   IWAVPR =     11    prediction:  0-non 1-charg 2-wave 3-comb
   ISYM   =      0    0-nonsym 1-usesym 2-fastsym
   LCORR  =      T    Harris-Foulkes like correction to forces

   POTIM  = 0.5000    time-step for ionic-motion
   TEIN   =    0.0    initial temperature
   TEBEG  =    0.0;   TEEND  =   0.0 temperature during run
   SMASS  =  -3.00    Nose mass-parameter (am)
   estimated Nose-frequenzy (Omega)   =  0.10E-29 period in steps = 0.13E+47 mass=  -0.139E-25a.u.
   SCALEE = 1.0000    scale energy and forces
   NPACO  =    256;   APACO  = 16.0  distance and # of slots for P.C.
   PSTRESS=    0.0 pullay stress

  Mass of Ions in am
   POMASS =  12.01 58.93  1.00 14.00 16.00
  Ionic Valenz
   ZVAL   =   4.00  9.00  1.00  5.00  6.00
  Atomic Wigner-Seitz radii
   RWIGS  =  -1.00 -1.00 -1.00 -1.00 -1.00
  virtual crystal weights 
   VCA    =   1.00  1.00  1.00  1.00  1.00
   NELECT =     604.0000    total number of electrons
   NUPDOWN=      -1.0000    fix difference up-down

 DOS related values:
   EMIN   =  10.00;   EMAX   =-10.00  energy-range for DOS
   EFERMI =   0.00
   ISMEAR =     0;   SIGMA  =   0.05  broadening in eV -4-tet -1-fermi 0-gaus

 Electronic relaxation 2 (details)
   IALGO  =     38    algorithm
   LDIAG  =      T    sub-space diagonalisation (order eigenvalues)
   LSUBROT=      F    optimize rotation matrix (better conditioning)
   TURBO    =      0    0=normal 1=particle mesh
   IRESTART =      0    0=no restart 2=restart with 2 vectors
   NREBOOT  =      0    no. of reboots
   NMIN     =      0    reboot dimension
   EREF     =   0.00    reference energy to select bands
   IMIX   =      4    mixing-type and parameters
     AMIX     =   0.40;   BMIX     =  1.00
     AMIX_MAG =   1.60;   BMIX_MAG =  1.00
     AMIN     =   0.10
     WC   =   100.;   INIMIX=   1;  MIXPRE=   1;  MAXMIX= -45

 Intra band minimization:
   WEIMIN = 0.0010     energy-eigenvalue tresh-hold
   EBREAK =  0.65E-09  absolut break condition
   DEPER  =   0.30     relativ break condition  

   TIME   =   0.40     timestep for ELM

  volume/ion in A,a.u.               =      27.63       186.48
  Fermi-wavevector in a.u.,A,eV,Ry     =   0.850297  1.606828  9.837074  0.723005
  Thomas-Fermi vector in A             =   1.966252
 
 Write flags
   LWAVE        =      T    write WAVECAR
   LDOWNSAMPLE  =      F    k-point downsampling of WAVECAR
   LCHARG       =      T    write CHGCAR
   LVTOT        =      F    write LOCPOT, total local potential
   LVHAR        =      F    write LOCPOT, Hartree potential only
   LELF         =      F    write electronic localiz. function (ELF)
   LORBIT       =     11    0 simple, 1 ext, 2 COOP (PROOUT), +10 PAW based schemes


 Dipole corrections
   LMONO  =      F    monopole corrections only (constant potential shift)
   LDIPOL =      F    correct potential (dipole corrections)
   IDIPOL =      0    1-x, 2-y, 3-z, 4-all directions 
   EPSILON=  1.0000000 bulk dielectric constant

 Exchange correlation treatment:
   GGA     =    PE    GGA type
   LEXCH   =     8    internal setting for exchange type
   VOSKOWN=      0    Vosko Wilk Nusair interpolation
   LHFCALC =     F    Hartree Fock is set to
   LHFONE  =     F    Hartree Fock one center treatment
   AEXX    =    0.0000 exact exchange contribution

 Linear response parameters
   LEPSILON=     F    determine dielectric tensor
   LRPA    =     F    only Hartree local field effects (RPA)
   LNABLA  =     F    use nabla operator in PAW spheres
   LVEL    =     F    velocity operator in full k-point grid
   LINTERFAST=   F  fast interpolation
   KINTER  =     0    interpolate to denser k-point grid
   CSHIFT  =0.1000    complex shift for real part using Kramers Kronig
   OMEGAMAX=  -1.0    maximum frequency
   DEG_THRESHOLD= 0.2000000E-02 threshold for treating states as degnerate
   RTIME   =   -0.100 relaxation time in fs
  (WPLASMAI=    0.000 imaginary part of plasma frequency in eV, 0.658/RTIME)
   DFIELD  = 0.0000000 0.0000000 0.0000000 field for delta impulse in time
 
 Orbital magnetization related:
   ORBITALMAG=     F  switch on orbital magnetization
   LCHIMAG   =     F  perturbation theory with respect to B field
   DQ        =  0.001000  dq finite difference perturbation B field
   LLRAUG    =     F  two centre corrections for induced B field



--------------------------------------------------------------------------------------------------------


 conjugate gradient relaxation of ions
 charge density and potential will be updated during run
 spin polarized calculation
 Variant of blocked Davidson
 Davidson routine will perform the subspace rotation
 perform sub-space diagonalisation
    after iterative eigenvector-optimisation
 modified Broyden-mixing scheme, WC =      100.0
 initial mixing is a Kerker type mixing with AMIX =  0.4000 and BMIX =      1.0000
 Hartree-type preconditioning will be used
 using additional bands           82
 real space projection scheme for non local part
 use partial core corrections
 calculate Harris-corrections to forces 
   (improved forces if not selfconsistent)
 use gradient corrections 
 use of overlap-Matrix (Vanderbilt PP)
 Gauss-broadening in eV      SIGMA  =   0.05


--------------------------------------------------------------------------------------------------------


  energy-cutoff  :      600.00
  volume of cell :     4310.72
      direct lattice vectors                 reciprocal lattice vectors
    24.627743989 -0.000295625 -0.000827262     0.040604612 -0.000000446 -0.000001902
     0.000403213 24.631177658  2.834164489     0.000000458  0.040702480 -0.000899741
     0.000335477  0.157486360  7.124364531     0.000004533 -0.016191974  0.140721325

  length of vectors
    24.627744005 24.793696807  7.126104970     0.040604612  0.040712423  0.141649819


 
 k-points in units of 2pi/SCALE and weight: read from INCAR                         
   0.00000000  0.00000000  0.00000000       0.333
   0.00000151 -0.00539732  0.04690711       0.667
 
 k-points in reciprocal lattice and weights: read from INCAR                         
   0.00000000  0.00000000  0.00000000       0.333
   0.00000000  0.00000000  0.33333333       0.667
 
 position of ions in fractional coordinates (direct lattice) 
   0.90629979  0.96784930  0.12182815
   0.92925843  0.97906574  0.41632951
   0.90585648  0.81228673  0.93112919
   0.59366599  0.46778683  0.62175123
   0.57129179  0.30079849  0.13683777
   0.07108770  0.80072031  0.13628787
   0.57078035  0.47904999  0.91630421
   0.59414363  0.31234603  0.43112925
   0.42907232  0.47899152  0.41621622
   0.09402788  0.81206241  0.43068686
   0.07082402  0.97901897  0.91612852
   0.42867991  0.30080148  0.63665023
   0.92869796  0.80073534  0.63682133
   0.09377457  0.96764871  0.62174296
   0.40578400  0.31232035  0.93092764
   0.40614134  0.46757205  0.12186742
   0.82137920  0.03833005  0.43896020
   0.84541572  0.07670929  0.10481698
   0.84447141  0.70370853  0.94869485
   0.65468117  0.57658987  0.60456767
   0.65553109  0.20378741  0.44859501
   0.17928416  0.74189539  0.11357812
   0.67863729  0.53825545  0.93885466
   0.67970059  0.24232833  0.11457619
   0.32097726  0.53795920  0.43832454
   0.15513110  0.70338269  0.44759525
   0.15470550  0.07653452  0.60437779
   0.34448492  0.20375861  0.94821039
   0.82029998  0.74225651  0.61471107
   0.17873807  0.03819601  0.93859574
   0.32027259  0.24230898  0.61422394
   0.34520492  0.57643909  0.10440464
   0.77902730  0.08101453  0.43761182
   0.80298289  0.11897675  0.11141069
   0.80187494  0.66160818  0.94228376
   0.69707283  0.61888421  0.61131647
   0.69813607  0.16169177  0.44224366
   0.22173765  0.69929203  0.11506065
   0.72099300  0.58092965  0.93757206
   0.72214917  0.19973161  0.11604321
   0.27852903  0.58055071  0.43665522
   0.19762479  0.66119514  0.44106229
   0.19709102  0.11884609  0.61106673
   0.30193546  0.16161439  0.94180293
   0.77786203  0.69965965  0.61612601
   0.22109618  0.08088195  0.93720752
   0.27785174  0.19968293  0.61569846
   0.30267439  0.61861979  0.11070644
   0.74697011  0.08272601  0.59739281
   0.79451932  0.15791612  0.95420443
   0.79333760  0.62270569  0.09954624
   0.70552347  0.65784496  0.45415937
   0.70666079  0.12278355  0.59951939
   0.25390608  0.69761957  0.95548636
   0.75303288  0.58264722  0.09738830
   0.75426328  0.19802491  0.95635970
   0.24635849  0.58218043  0.59620492
   0.20604723  0.62223106  0.59824519
   0.20550239  0.15782003  0.45392098
   0.29345257  0.12268108  0.09902459
   0.74575340  0.69797291  0.45642607
   0.25316986  0.08259934  0.09693360
   0.24571216  0.19797564  0.45608919
   0.29422488  0.65756289  0.95348914
   0.89343911  0.99794905  0.26903457
   0.89276163  0.78219911  0.78414626
   0.60658123  0.49789319  0.76889211
   0.60725271  0.28228602  0.28408304
   0.10702358  0.78203873  0.28341946
   0.39321472  0.49771765  0.26887209
   0.10667162  0.99779307  0.76879160
   0.39270269  0.28227449  0.78381788
   0.77095736  0.11999083  0.27566475
   0.76982845  0.66065784  0.77802950
   0.72908087  0.61989593  0.77561345
   0.73019595  0.16074730  0.27800124
   0.22974001  0.66027749  0.27694256
   0.27053999  0.61955749  0.27474748
   0.22912468  0.11987649  0.77528833
   0.26986051  0.16066309  0.77760083
   0.99208687  0.88977396  0.02641909
   0.00787386  0.88967660  0.52645776
   0.50782789  0.38974648  0.52659473
   0.49211357  0.38971956  0.02658920
   0.31863822  0.12414983  0.22394632
   0.74591079  0.55235621  0.22072730
   0.74720635  0.22831447  0.83296447
   0.75407691  0.05241687  0.72069234
   0.75279884  0.72829315  0.33310046
   0.68040443  0.65630241  0.32912021
   0.18083617  0.62368992  0.72311903
   0.18034782  0.15627731  0.32897024
   0.81849936  0.62418479  0.22451985
   0.25271905  0.22830863  0.33278021
   0.25342158  0.55185934  0.71949686
   0.24685482  0.72791082  0.83209063
   0.31945341  0.65608282  0.82866864
   0.68147382  0.12424791  0.72445399
   0.81965020  0.15637104  0.82918422
   0.24608907  0.05229221  0.22025569
   0.56717202  0.49067766  0.05695784
   0.43223216  0.28907558  0.49611974
   0.38915544  0.46972283  0.98063914
   0.11102392  0.80991361  0.57188070
   0.06718713  0.99068315  0.05671811
   0.38877904  0.31027296  0.07208057
   0.88932313  0.97008826  0.98054776
   0.93223112  0.78898213  0.49631401
   0.11075675  0.96982319  0.48050095
   0.61061938  0.47000080  0.48044843
   0.56776922  0.28905021  0.99632889
   0.93291936  0.99067190  0.55697847
   0.61112088  0.31029608  0.57232276
   0.43270525  0.49068880  0.55676446
   0.06749814  0.78905533  0.99568414
   0.88890730  0.81024538  0.07235840
   0.94706324  0.93308125  0.17906290
   0.96130446  0.94015115  0.36036077
   0.94687958  0.84670843  0.87380733
   0.55288495  0.43305296  0.67911487
   0.53891459  0.33948184  0.19270035
   0.03882483  0.83944984  0.19242907
   0.53869024  0.44015151  0.86044241
   0.55309019  0.34674146  0.37390801
   0.46120855  0.44011576  0.36041322
   0.05305361  0.84658495  0.37369577
   0.03872522  0.94012347  0.86029523
   0.46104306  0.33948297  0.69259878
   0.96105192  0.83945030  0.69259661
   0.05295439  0.93296046  0.67906906
   0.44684297  0.34672231  0.87380607
   0.44698767  0.43292547  0.17921399
   0.85260982  0.03859875  0.27079056
   0.85169907  0.74177594  0.78264473
   0.64743407  0.53852033  0.77060664
   0.64832499  0.24187401  0.28256069
   0.14797315  0.74151413  0.28166244
   0.35230386  0.53829317  0.27035775
   0.14752934  0.03842448  0.77038382
   0.35165768  0.24184778  0.78218819
   0.82931964  0.00421265  0.57802352
   0.87308479  0.07438823  0.96269415
   0.87228545  0.70590800  0.09057385
   0.62709673  0.57422072  0.46229588
   0.62770311  0.20598391  0.59044068
   0.17130068  0.77601460  0.97458114
   0.67066405  0.50414769  0.07791172
   0.67174276  0.27648219  0.97564039
   0.32892087  0.50388039  0.57749909
   0.12737605  0.70563187  0.58957570
   0.12706600  0.07419084  0.46220159
   0.37229806  0.20599220  0.09007068
   0.82824188  0.77643228  0.47583535
   0.17076830  0.00411255  0.07773256
   0.32820167  0.27648743  0.47533744
   0.37303754  0.57419857  0.96259699
 
 position of ions in cartesian coordinates  (Angst):
  22.32055042 23.85818647  3.61024252
  22.88607323 24.18083372  5.74014779
  22.30984141 20.15395117  8.93510861
  14.62105113 11.61988239  5.75487613
  14.06979506  7.43040218  1.82692197
   1.75109837 19.74412662  3.24027873
  14.05753279 11.94370220  7.88531954
  14.63268768  7.76117196  3.95627048
  10.56741614 11.86354667  4.32246189
   2.31616660 20.06985304  5.36981083
   1.74493787 24.25864709  9.30147574
  10.55775401  7.50923163  5.38789454
  22.87227215 19.82307051  6.80559467
   2.31005493 23.93221549  7.17192153
   9.99398269  7.83930648  7.51709942
  10.00257447 11.53592255  2.19306805
  20.22887942  1.01300181  3.23526666
  20.82074808  1.90569736  0.96346171
  20.79802767 17.48232656  8.75257503
  16.12375548 14.29710508  5.94076941
  16.14448452  5.08997777  3.77297915
   4.41570153 18.29159108  2.91167718
  16.71383753 13.40552180  8.21368589
  16.73962837  5.98667547  1.50251861
   7.90530976 13.31950381  4.64718310
   3.82096275 17.39558839  5.18220564
   3.81028116  1.98027090  4.52259111
   8.48428669  5.16804297  7.33259690
  20.20264336 18.37921808  6.48242422
   4.40224579  1.08857590  6.79500410
   7.88789516  6.06499265  5.06243381
   8.50188581 14.21471387  2.37725433
  19.18586431  2.06417077  3.34667013
  19.77574250  2.94784577  1.13026579
  19.74895353 16.44434841  8.58761605
  17.16778590 15.33991478  6.10868434
  17.19373004  4.05209960  3.60838857
   5.46121858 17.24244114  2.80145921
  17.75697990 14.45642305  8.32545887
  17.78502427  4.93768648  1.39220893
   6.85992231 14.36833264  4.75603677
   4.86746740 16.35541782  5.01606081
   4.85416000  3.02349568  4.69012846
   7.43637044  4.12898471  7.16753939
  19.15747572 17.33024266  6.37181330
   5.44544706  2.13974971  6.90605787
   6.84314854  5.01530777  4.95216467
   7.45447397 15.25467918  2.54173288
  18.39642249  2.13149951  4.48988533
  19.56760213  4.03969921  7.24500317
  19.53839969 15.35341722  2.47339775
  17.37586900 16.27481150  5.09945409
  17.40371162  3.11851075  4.61859887
   6.25373580 17.33359258  8.78419172
  18.54576866 14.36640186  2.34452486
  18.57620374  5.02797726  7.37406631
   6.06768863 14.43361088  5.89737248
   5.07492997 15.42043833  6.02545152
   5.06127607  3.95871884  3.68101646
   7.22715746  3.03728770  1.05294287
  18.36665842 17.26355522  5.22929884
   6.23506842  2.04970997  0.92448100
   6.05156899  4.94812839  3.81023795
   7.24667992 16.34662303  8.65640218
  22.00388229 24.62276545  4.74431298
  21.98728340 19.38971377  7.80268618
  14.93918602 12.38460625  6.88847707
  14.95547342  6.99759675  2.82345376
   2.63615969 19.30713797  4.23552141
   9.68428223 12.30159934  3.32583118
   2.62774151 24.69786107  8.30497308
   9.67175818  7.07607753  6.38389173
  18.98708125  2.99870086  2.30337215
  18.95966533 16.39508205  7.41474188
  17.95612711 15.39069989  7.28203687
  17.98323706  4.00296076  2.43556238
   5.65833718 16.30695903  3.84418476
   6.66313153 15.30361957  3.71310519
   5.64313236  3.07472871  5.86299682
   6.64638122  4.07970277  5.99503411
  24.43322905 21.92004782  2.70916427
   0.19445069 21.99668999  6.27216029
  12.50698906  9.68269615  4.85583833
  12.11981314  9.60329375  1.29355338
   7.84746566  3.09313073  1.94707263
  18.37039667 13.63972506  3.13739306
  18.40237818  5.75461384  6.58080516
  18.57147602  1.40436560  5.28240916
  18.54014241 17.99095410  4.43660889
  16.75720121 16.21713206  4.20427849
   4.45408085 15.47604504  6.91925377
   4.44173335  3.90104915  2.78647030
  20.15811961 15.40952338  3.36792655
   6.22410381  5.67584413  3.01770267
   6.24166567 13.70618154  6.68980839
   6.08004985 18.06027056  7.99093174
   7.86795934 16.29050210  7.76291986
  16.78345581  3.17426238  5.51284953
  20.18647649  3.98194572  6.34991383
   6.06071356  1.32263316  1.71718293
  13.96838425 12.09477115  1.79598046
  10.64518603  7.19827638  4.35346809
   9.58453883 11.72414881  8.31738052
   2.73478720 20.03915648  6.36962311
   1.65508585 24.41060519  3.21178393
   9.57489994  7.65362515  1.39257124
  21.90274240 24.04857638  9.73443370
  22.95923405 19.51144601  5.77125584
   2.72824112 23.96352700  6.17181074
  15.03852845 11.65215674  4.75444421
  13.98332568  7.27638740  7.91695637
  22.97628536 24.48885619  6.77507302
  15.05084570  7.73291020  4.95636054
  10.65693873 12.17379799  5.35692777
   1.66297921 19.59214867  9.32987353
  21.89213234 19.96843058  2.81114096
  23.32446726 23.01080997  3.91943162
  23.67526000 23.21349779  5.23108928
  23.32014241 20.99275862  8.62424960
  13.61671138 10.77339239  6.06514785
  13.27245212  8.39202588  2.33456911
   0.95657111 20.70693164  3.75004167
  13.26719140 10.97679862  7.37712153
  13.62162873  8.59937246  3.64612178
  11.35882446 10.89719319  3.81469403
   1.30705755 20.91122057  5.06166201
   0.95438254 23.29182159  8.79348935
  11.35481970  8.47080383  5.89609533
  23.66911155 20.78543986  7.31265591
   1.30475123 23.08684338  7.48205511
  11.00516728  8.67765924  7.20761140
  11.00853253 10.69155574  2.50339800
  20.99796289  0.99312640  2.03790053
  20.97598838 18.39381903  7.67745677
  15.94531618 13.38555850  7.01580220
  15.96697412  6.00194942  2.69803972
   3.64463837 18.30868057  4.10811650
   8.67675699 13.30126833  3.45144708
   3.63358867  1.06772164  5.59727439
   8.66089512  6.08007576  6.25773929
  20.42446736  0.19454817  4.12930356
  21.50246154  1.98362290  7.06869027
  21.48273777 17.40135163  2.64521892
  15.44436435 14.21635236  4.92048155
  15.45919268  5.16642712  4.78978765
   4.21938913 19.26758600  9.14248259
  16.51717191 12.42982302  1.98335413
  16.54394739  6.96353330  7.73385810
   8.10097578 12.50201846  5.54212183
   3.13746697 17.47335639  6.20012363
   3.12953393  1.90016071  3.50305656
   9.16897462  5.08790525  1.22520412
  20.39820177 19.19913406  5.58987613
   4.20566559  0.11348826  0.56530949
   8.08313767  6.88497324  4.16981653
   9.18762743 14.29467266  8.48495643
 


--------------------------------------------------------------------------------------------------------


 k-point  1 :   0.0000 0.0000 0.0000  plane waves:  143911
 k-point  2 :   0.0000 0.0000 0.3333  plane waves:  143870

 maximum and minimum number of plane-waves per node :     36094    35853

 maximum number of plane-waves:    143911
 maximum index in each direction: 
   IXMAX=   49   IYMAX=   49   IZMAX=   14
   IXMIN=  -49   IYMIN=  -49   IZMIN=  -14


 real space projection operators:
  total allocation   :      12742.20 KBytes
  max/ min on nodes  :       3224.46       3146.95


 parallel 3D FFT for wavefunctions:
    minimum data exchange during FFTs selected (reduces bandwidth)
 parallel 3D FFT for charge:
    minimum data exchange during FFTs selected (reduces bandwidth)


 total amount of memory used by VASP MPI-rank0   108042. kBytes
=======================================================================

   base      :      30000. kBytes
   nonlr-proj:       6516. kBytes
   fftplans  :      11230. kBytes
   grid      :      31214. kBytes
   one-center:       1213. kBytes
   wavefun   :      27869. kBytes
 
     INWAV:  cpu time    0.0003: real time    0.0012
 Broyden mixing: mesh for mixing (old mesh)
   NGX = 99   NGY = 99   NGZ = 29
  (NGX  =300   NGY  =300   NGZ  = 96)
  gives a total of 284229 points

 initial charge density was supplied:
 charge density of overlapping atoms calculated
 number of electron     604.0000000 magnetization       0.0000000
 keeping initial charge density in first step


--------------------------------------------------------------------------------------------------------


 Maximum index for non-local projection operator          688
 Maximum index for augmentation-charges          547 (set IRDMAX)


--------------------------------------------------------------------------------------------------------


 First call to EWALD:  gamma=   0.109
 Maximum number of real-space cells 2x 2x 6
 Maximum number of reciprocal cells 4x 4x 1

    FEWALD:  cpu time    0.0154: real time    0.0154


--------------------------------------- Iteration      1(   1)  ---------------------------------------


    POTLOK:  cpu time    0.4812: real time    0.6400
    SETDIJ:  cpu time    0.0812: real time    0.0821
     EDDAV:  cpu time   12.2928: real time   12.4363
       DOS:  cpu time    0.0080: real time    0.0087
    --------------------------------------------
      LOOP:  cpu time   12.8633: real time   13.1671

 eigenvalue-minimisations  :  3072
 total energy-change (2. order) : 0.5707988E+04  (-0.2629938E+05)
 number of electron     604.0000000 magnetization       0.0000000
 augmentation part      604.0000000 magnetization       0.0000000

 Free energy of the ion-electron system (eV)
  ---------------------------------------------------
  alpha Z        PSCENC =       391.88617997
  Ewald energy   TEWEN  =     42641.96714548
  -Hartree energ DENC   =    -66226.80394165
  -exchange      EXHF   =         0.00000000
  -V(xc)+E(xc)   XCENC  =      2114.16559872
  PAW double counting   =     22087.95224925   -22402.63741193
  entropy T*S    EENTRO =        -0.05469326
  eigenvalues    EBANDS =     -1590.29782950
  atomic energy  EATOM  =     28691.81066055
  Solvation  Ediel_sol  =         0.00000000
  ---------------------------------------------------
  free energy    TOTEN  =      5707.98795761 eV

  energy without entropy =     5708.04265087  energy(sigma->0) =     5708.01530424


--------------------------------------------------------------------------------------------------------




--------------------------------------- Iteration      1(   2)  ---------------------------------------


     EDDAV:  cpu time   16.5926: real time   16.6233
       DOS:  cpu time    0.0014: real time    0.0014
    --------------------------------------------
      LOOP:  cpu time   16.5940: real time   16.6247

 eigenvalue-minimisations  :  4512
 total energy-change (2. order) :-0.5899692E+04  (-0.5674208E+04)
 number of electron     604.0000000 magnetization       0.0000000
 augmentation part      604.0000000 magnetization       0.0000000

 Free energy of the ion-electron system (eV)
  ---------------------------------------------------
  alpha Z        PSCENC =       391.88617997
  Ewald energy   TEWEN  =     42641.96714548
  -Hartree energ DENC   =    -66226.80394165
  -exchange      EXHF   =         0.00000000
  -V(xc)+E(xc)   XCENC  =      2114.16559872
  PAW double counting   =     22087.95224925   -22402.63741193
  entropy T*S    EENTRO =        -0.00000000
  eigenvalues    EBANDS =     -7490.04492409
  atomic energy  EATOM  =     28691.81066055
  Solvation  Ediel_sol  =         0.00000000
  ---------------------------------------------------
  free energy    TOTEN  =      -191.70444372 eV

  energy without entropy =     -191.70444372  energy(sigma->0) =     -191.70444372


--------------------------------------------------------------------------------------------------------




--------------------------------------- Iteration      1(   3)  ---------------------------------------


     EDDAV:  cpu time   13.7722: real time   13.7881
       DOS:  cpu time    0.0025: real time    0.0025
    --------------------------------------------
      LOOP:  cpu time   13.7747: real time   13.7907

 eigenvalue-minimisations  :  3744
 total energy-change (2. order) :-0.1065514E+04  (-0.1058290E+04)
 number of electron     604.0000000 magnetization       0.0000000
 augmentation part      604.0000000 magnetization       0.0000000

 Free energy of the ion-electron system (eV)
  ---------------------------------------------------
  alpha Z        PSCENC =       391.88617997
  Ewald energy   TEWEN  =     42641.96714548
  -Hartree energ DENC   =    -66226.80394165
  -exchange      EXHF   =         0.00000000
  -V(xc)+E(xc)   XCENC  =      2114.16559872
  PAW double counting   =     22087.95224925   -22402.63741193
  entropy T*S    EENTRO =        -0.07743659
  eigenvalues    EBANDS =     -8555.48147621
  atomic energy  EATOM  =     28691.81066055
  Solvation  Ediel_sol  =         0.00000000
  ---------------------------------------------------
  free energy    TOTEN  =     -1257.21843243 eV

  energy without entropy =    -1257.14099584  energy(sigma->0) =    -1257.17971413


--------------------------------------------------------------------------------------------------------




--------------------------------------- Iteration      1(   4)  ---------------------------------------


     EDDAV:  cpu time   14.8598: real time   14.8758
       DOS:  cpu time    0.0025: real time    0.0025
    --------------------------------------------
      LOOP:  cpu time   14.8623: real time   14.8783

 eigenvalue-minimisations  :  4096
 total energy-change (2. order) :-0.3931005E+02  (-0.3901143E+02)
 number of electron     604.0000000 magnetization       0.0000000
 augmentation part      604.0000000 magnetization       0.0000000

 Free energy of the ion-electron system (eV)
  ---------------------------------------------------
  alpha Z        PSCENC =       391.88617997
  Ewald energy   TEWEN  =     42641.96714548
  -Hartree energ DENC   =    -66226.80394165
  -exchange      EXHF   =         0.00000000
  -V(xc)+E(xc)   XCENC  =      2114.16559872
  PAW double counting   =     22087.95224925   -22402.63741193
  entropy T*S    EENTRO =        -0.07383441
  eigenvalues    EBANDS =     -8594.79512910
  atomic energy  EATOM  =     28691.81066055
  Solvation  Ediel_sol  =         0.00000000
  ---------------------------------------------------
  free energy    TOTEN  =     -1296.52848314 eV

  energy without entropy =    -1296.45464873  energy(sigma->0) =    -1296.49156593


--------------------------------------------------------------------------------------------------------




--------------------------------------- Iteration      1(   5)  ---------------------------------------


     EDDAV:  cpu time   16.4256: real time   16.4420
       DOS:  cpu time    0.0025: real time    0.0025
    CHARGE:  cpu time    0.6953: real time    0.7051
    MIXING:  cpu time    0.0163: real time    0.0180
    --------------------------------------------
      LOOP:  cpu time   17.1397: real time   17.1677

 eigenvalue-minimisations  :  4608
 total energy-change (2. order) :-0.1143605E+01  (-0.1140372E+01)
 number of electron     604.0000021 magnetization       0.0005949
 augmentation part       36.5824869 magnetization      -0.0086340

 Broyden mixing:
  rms(total) = 0.87853E+01    rms(broyden)= 0.87849E+01
  rms(prec ) = 0.96667E+01
  weight for this iteration     100.00

 Free energy of the ion-electron system (eV)
  ---------------------------------------------------
  alpha Z        PSCENC =       391.88617997
  Ewald energy   TEWEN  =     42641.96714548
  -Hartree energ DENC   =    -66226.80394165
  -exchange      EXHF   =         0.00000000
  -V(xc)+E(xc)   XCENC  =      2114.16559872
  PAW double counting   =     22087.95224925   -22402.63741193
  entropy T*S    EENTRO =        -0.07192230
  eigenvalues    EBANDS =     -8595.94064654
  atomic energy  EATOM  =     28691.81066055
  Solvation  Ediel_sol  =         0.00000000
  ---------------------------------------------------
  free energy    TOTEN  =     -1297.67208847 eV

  energy without entropy =    -1297.60016617  energy(sigma->0) =    -1297.63612732


--------------------------------------------------------------------------------------------------------




--------------------------------------- Iteration      1(   6)  ---------------------------------------


    POTLOK:  cpu time    0.4207: real time    0.4207
    SETDIJ:  cpu time    0.0645: real time    0.0652
     EDDAV:  cpu time   15.4830: real time   15.5156
       DOS:  cpu time    0.0030: real time    0.0030
    CHARGE:  cpu time    0.6631: real time    0.6718
    MIXING:  cpu time    0.0165: real time    0.0253
    --------------------------------------------
      LOOP:  cpu time   16.6509: real time   16.7017

 eigenvalue-minimisations  :  4288
 total energy-change (2. order) :-0.2230357E+03  (-0.2762517E+03)
 number of electron     603.9999983 magnetization       0.0009541
 augmentation part       56.8647033 magnetization      -0.0222959

 Broyden mixing:
  rms(total) = 0.22372E+02    rms(broyden)= 0.22372E+02
  rms(prec ) = 0.22736E+02
  weight for this iteration     100.00

 eigenvalues of (default mixing * dielectric matrix)
  average eigenvalue GAMMA=   0.1077
  0.1077

 Free energy of the ion-electron system (eV)
  ---------------------------------------------------
  alpha Z        PSCENC =       391.88617997
  Ewald energy   TEWEN  =     42641.96714548
  -Hartree energ DENC   =    -66531.56213427
  -exchange      EXHF   =         0.00000000
  -V(xc)+E(xc)   XCENC  =      2149.85544900
  PAW double counting   =     32765.64284232   -32987.64532751
  entropy T*S    EENTRO =        -0.13221612
  eigenvalues    EBANDS =     -8642.53040809
  atomic energy  EATOM  =     28691.81066055
  Solvation  Ediel_sol  =         0.00000000
  ---------------------------------------------------
  free energy    TOTEN  =     -1520.70780869 eV

  energy without entropy =    -1520.57559257  energy(sigma->0) =    -1520.64170063


--------------------------------------------------------------------------------------------------------




--------------------------------------- Iteration      1(   7)  ---------------------------------------


    POTLOK:  cpu time    0.4038: real time    0.4048
    SETDIJ:  cpu time    0.0639: real time    0.0639
     EDDAV:  cpu time   13.4851: real time   13.5000
       DOS:  cpu time    0.0025: real time    0.0025
    CHARGE:  cpu time    0.6631: real time    0.6698
    MIXING:  cpu time    0.0095: real time    0.0138
    --------------------------------------------
      LOOP:  cpu time   14.6279: real time   14.6548

 eigenvalue-minimisations  :  3552
 total energy-change (2. order) : 0.1008569E+03  (-0.2244046E+02)
 number of electron     603.9999983 magnetization       0.0029558
 augmentation part       55.0666500 magnetization      -0.0200979

 Broyden mixing:
  rms(total) = 0.14240E+02    rms(broyden)= 0.14240E+02
  rms(prec ) = 0.14737E+02
  weight for this iteration     100.00

 eigenvalues of (default mixing * dielectric matrix)
  average eigenvalue GAMMA=   0.5042
  0.5042  0.5042

 Free energy of the ion-electron system (eV)
  ---------------------------------------------------
  alpha Z        PSCENC =       391.88617997
  Ewald energy   TEWEN  =     42641.96714548
  -Hartree energ DENC   =    -66695.19316077
  -exchange      EXHF   =         0.00000000
  -V(xc)+E(xc)   XCENC  =      2152.70827863
  PAW double counting   =     34354.34613968   -34607.63091084
  entropy T*S    EENTRO =        -0.14206558
  eigenvalues    EBANDS =     -8349.60318865
  atomic energy  EATOM  =     28691.81066055
  Solvation  Ediel_sol  =         0.00000000
  ---------------------------------------------------
  free energy    TOTEN  =     -1419.85092155 eV

  energy without entropy =    -1419.70885596  energy(sigma->0) =    -1419.77988875


--------------------------------------------------------------------------------------------------------




--------------------------------------- Iteration      1(   8)  ---------------------------------------


    POTLOK:  cpu time    0.3717: real time    0.3717
    SETDIJ:  cpu time    0.0634: real time    0.0634
     EDDAV:  cpu time   16.0835: real time   16.1023
       DOS:  cpu time    0.0023: real time    0.0023
    CHARGE:  cpu time    0.6708: real time    0.6768
    MIXING:  cpu time    0.0090: real time    0.0113
    --------------------------------------------
      LOOP:  cpu time   17.2007: real time   17.2279

 eigenvalue-minimisations  :  4288
 total energy-change (2. order) : 0.2622550E+03  (-0.2766910E+02)
 number of electron     603.9999996 magnetization       0.0027690
 augmentation part       45.6805438 magnetization       0.0055621

 Broyden mixing:
  rms(total) = 0.33124E+01    rms(broyden)= 0.33122E+01
  rms(prec ) = 0.33747E+01
  weight for this iteration     100.00

 eigenvalues of (default mixing * dielectric matrix)
  average eigenvalue GAMMA=   0.4751
  0.4899  0.4899  0.4455

 Free energy of the ion-electron system (eV)
  ---------------------------------------------------
  alpha Z        PSCENC =       391.88617997
  Ewald energy   TEWEN  =     42641.96714548
  -Hartree energ DENC   =    -67159.22815526
  -exchange      EXHF   =         0.00000000
  -V(xc)+E(xc)   XCENC  =      2164.00718322
  PAW double counting   =     39797.78069056   -40136.24025005
  entropy T*S    EENTRO =        -0.00012532
  eigenvalues    EBANDS =     -7549.57925077
  atomic energy  EATOM  =     28691.81066055
  Solvation  Ediel_sol  =         0.00000000
  ---------------------------------------------------
  free energy    TOTEN  =     -1157.59592163 eV

  energy without entropy =    -1157.59579631  energy(sigma->0) =    -1157.59585897


--------------------------------------------------------------------------------------------------------




[...]
     15.03853     11.65216      4.75444         0.001672      0.002868      0.004860
     13.98333      7.27639      7.91696        -0.002652      0.005454     -0.002664
     22.97629     24.48886      6.77507        -0.000405     -0.001305      0.003932
     15.05085      7.73291      4.95636         0.004397     -0.001427      0.000979
     10.65694     12.17380      5.35693         0.000068     -0.003566      0.000854
      1.66298     19.59215      9.32987        -0.002582      0.004534     -0.002795
     21.89213     19.96843      2.81114        -0.006316     -0.002621      0.001110
     23.32447     23.01081      3.91943        -0.001895      0.001174     -0.004436
     23.67526     23.21350      5.23109        -0.001496      0.000209     -0.003949
     23.32014     20.99276      8.62425        -0.001900     -0.000707     -0.001402
     13.61671     10.77339      6.06515         0.002185      0.002454      0.000338
     13.27245      8.39203      2.33457        -0.000478     -0.000918     -0.001617
      0.95657     20.70693      3.75004         0.001244     -0.002041     -0.001200
     13.26719     10.97680      7.37712         0.002360      0.002023     -0.003897
     13.62163      8.59937      3.64612         0.002996     -0.004272     -0.002027
     11.35882     10.89719      3.81469        -0.000348      0.002120      0.000364
      1.30706     20.91122      5.06166         0.001333     -0.000837     -0.000321
      0.95438     23.29182      8.79349         0.000900      0.002245     -0.004076
     11.35482      8.47080      5.89610        -0.000755     -0.002511      0.002859
     23.66911     20.78544      7.31266        -0.001354     -0.002002      0.000843
      1.30475     23.08684      7.48206         0.003121      0.001333     -0.002307
     11.00517      8.67766      7.20761        -0.001589     -0.002181     -0.000178
     11.00853     10.69156      2.50340        -0.003126      0.002267     -0.001410
     20.99796      0.99313      2.03790         0.001374     -0.000132      0.005436
     20.97599     18.39382      7.67746        -0.000514      0.005358     -0.003690
     15.94532     13.38556      7.01580        -0.003055     -0.002331      0.005336
     15.96697      6.00195      2.69804         0.000769      0.001457     -0.005450
      3.64464     18.30868      4.10812         0.001196      0.002874     -0.004728
      8.67676     13.30127      3.45145         0.002965     -0.001353      0.006583
      3.63359      1.06772      5.59727        -0.003065      0.001850      0.004860
      8.66090      6.08008      6.25774        -0.000090      0.003054     -0.002623
     20.42447      0.19455      4.12930        -0.000824      0.001810     -0.000557
     21.50246      1.98362      7.06869         0.000403      0.001532      0.000037
     21.48274     17.40135      2.64522        -0.002478     -0.002818     -0.000796
     15.44436     14.21635      4.92048        -0.004614      0.000704     -0.002946
     15.45919      5.16643      4.78979         0.001119     -0.003802      0.000178
      4.21939     19.26759      9.14248         0.001472      0.001089     -0.000015
     16.51717     12.42982      1.98335         0.001520      0.001356      0.002112
     16.54395      6.96353      7.73386        -0.001518     -0.003406      0.000454
      8.10098     12.50202      5.54212         0.001749      0.000124     -0.000449
      3.13747     17.47336      6.20012        -0.000479     -0.004221     -0.000146
      3.12953      1.90016      3.50306         0.000067     -0.000748      0.003586
      9.16897      5.08791      1.22520        -0.003736     -0.005642     -0.001831
     20.39820     19.19913      5.58988         0.002062      0.000474     -0.004379
      4.20567      0.11349      0.56531         0.001808      0.003258      0.000712
      8.08314      6.88497      4.16982         0.002012     -0.002649      0.000039
      9.18763     14.29467      8.48496        -0.003920      0.003885      0.003378
 -----------------------------------------------------------------------------------
    total drift:                                0.005931      0.015554     -0.095171


--------------------------------------------------------------------------------------------------------



  FREE ENERGIE OF THE ION-ELECTRON SYSTEM (eV)
  ---------------------------------------------------
  free  energy   TOTEN  =     -1178.65767714 eV

  energy  without entropy=    -1178.65065180  energy(sigma->0) =    -1178.65416447
 


--------------------------------------------------------------------------------------------------------


    POTLOK:  cpu time    0.4688: real time    0.4688


--------------------------------------------------------------------------------------------------------




--------------------------------------------------------------------------------------------------------


  
 reached required accuracy - stopping structural energy minimisation
 writing wavefunctions
     LOOP+:  cpu time  786.9041: real time  794.4870
    4ORBIT:  cpu time    0.0000: real time    0.0000
 


 total charge     
 
# of ion       s       p       d       tot
------------------------------------------
    1        0.866   1.768   0.000   2.634
    2        0.867   1.771   0.000   2.638
    3        0.866   1.768   0.000   2.634
    4        0.866   1.768   0.000   2.634
    5        0.867   1.771   0.000   2.638
    6        0.867   1.771   0.000   2.638
    7        0.867   1.771   0.000   2.638
    8        0.866   1.768   0.000   2.634
    9        0.867   1.771   0.000   2.638
   10        0.866   1.768   0.000   2.634
   11        0.867   1.771   0.000   2.638
   12        0.867   1.771   0.000   2.638
   13        0.867   1.771   0.000   2.638
   14        0.866   1.768   0.000   2.634
   15        0.866   1.768   0.000   2.634
   16        0.866   1.768   0.000   2.634
   17        0.862   1.715   0.000   2.577
   18        0.862   1.716   0.000   2.579
   19        0.862   1.716   0.000   2.579
   20        0.862   1.717   0.000   2.579
   21        0.862   1.716   0.000   2.579
   22        0.862   1.715   0.000   2.577
   23        0.862   1.715   0.000   2.578
   24        0.862   1.715   0.000   2.577
   25        0.862   1.715   0.000   2.578
   26        0.862   1.717   0.000   2.579
   27        0.862   1.716   0.000   2.578
   28        0.862   1.716   0.000   2.579
   29        0.862   1.715   0.000   2.577
   30        0.862   1.715   0.000   2.577
   31        0.862   1.715   0.000   2.577
   32        0.862   1.716   0.000   2.579
   33        0.866   1.782   0.000   2.648
   34        0.866   1.782   0.000   2.648
   35        0.866   1.782   0.000   2.648
   36        0.866   1.782   0.000   2.648
   37        0.866   1.782   0.000   2.648
   38        0.866   1.782   0.000   2.648
   39        0.866   1.782   0.000   2.648
   40        0.866   1.782   0.000   2.648
   41        0.866   1.782   0.000   2.648
   42        0.866   1.783   0.000   2.648
   43        0.866   1.782   0.000   2.648
   44        0.866   1.782   0.000   2.648
   45        0.866   1.782   0.000   2.648
   46        0.866   1.782   0.000   2.648
   47        0.866   1.782   0.000   2.648
   48        0.866   1.782   0.000   2.648
   49        0.870   1.765   0.000   2.635
   50        0.870   1.765   0.000   2.635
   51        0.870   1.765   0.000   2.635
   52        0.870   1.765   0.000   2.635
   53        0.870   1.765   0.000   2.635
   54        0.870   1.764   0.000   2.635
   55        0.870   1.765   0.000   2.635
   56        0.870   1.765   0.000   2.635
   57        0.870   1.765   0.000   2.635
   58        0.870   1.765   0.000   2.635
   59        0.870   1.765   0.000   2.635
   60        0.870   1.765   0.000   2.635
   61        0.870   1.765   0.000   2.635
   62        0.870   1.765   0.000   2.635
   63        0.870   1.765   0.000   2.635
   64        0.870   1.765   0.000   2.635
   65        0.844   1.787   0.000   2.631
   66        0.844   1.787   0.000   2.631
   67        0.844   1.787   0.000   2.631
   68        0.844   1.787   0.000   2.631
   69        0.844   1.787   0.000   2.631
   70        0.844   1.787   0.000   2.631
   71        0.844   1.787   0.000   2.631
   72        0.844   1.787   0.000   2.632
   73        0.866   1.794   0.000   2.660
   74        0.866   1.794   0.000   2.660
   75        0.866   1.794   0.000   2.660
   76        0.866   1.794   0.000   2.660
   77        0.866   1.794   0.000   2.660
   78        0.866   1.794   0.000   2.661
   79        0.866   1.794   0.000   2.660
   80        0.866   1.794   0.000   2.660
   81        0.400   0.509   7.145   8.055
   82        0.400   0.509   7.145   8.053
   83        0.400   0.509   7.145   8.055
   84        0.400   0.509   7.145   8.054
   85        0.638   0.048   0.000   0.686
   86        0.637   0.048   0.000   0.686
   87        0.637   0.048   0.000   0.686
   88        0.637   0.048   0.000   0.686
   89        0.637   0.048   0.000   0.686
   90        0.638   0.048   0.000   0.686
   91        0.638   0.048   0.000   0.686
   92        0.638   0.048   0.000   0.686
   93        0.638   0.048   0.000   0.686
   94        0.637   0.048   0.000   0.686
   95        0.637   0.048   0.000   0.686
   96        0.637   0.048   0.000   0.686
   97        0.638   0.048   0.000   0.686
   98        0.638   0.048   0.000   0.686
   99        0.638   0.048   0.000   0.686
  100        0.637   0.048   0.000   0.686
  101        0.638   0.049   0.000   0.687
  102        0.638   0.049   0.000   0.687
  103        0.636   0.049   0.000   0.685
  104        0.636   0.049   0.000   0.685
  105        0.638   0.049   0.000   0.687
  106        0.636   0.049   0.000   0.685
  107        0.636   0.049   0.000   0.685
  108        0.638   0.049   0.000   0.687
  109        0.636   0.049   0.000   0.685
  110        0.636   0.049   0.000   0.685
  111        0.638   0.049   0.000   0.687
  112        0.638   0.049   0.000   0.687
  113        0.636   0.049   0.000   0.685
  114        0.638   0.049   0.000   0.687
  115        0.638   0.049   0.000   0.687
  116        0.636   0.049   0.000   0.685
  117        1.235   2.605   0.000   3.839
  118        1.235   2.607   0.000   3.842
  119        1.235   2.605   0.000   3.840
  120        1.235   2.605   0.000   3.839
  121        1.235   2.607   0.000   3.842
  122        1.235   2.607   0.000   3.842
  123        1.235   2.607   0.000   3.842
  124        1.235   2.605   0.000   3.839
  125        1.235   2.607   0.000   3.842
  126        1.235   2.605   0.000   3.839
  127        1.235   2.607   0.000   3.842
  128        1.235   2.607   0.000   3.842
  129        1.235   2.607   0.000   3.842
  130        1.235   2.605   0.000   3.839
  131        1.235   2.605   0.000   3.839
  132        1.235   2.605   0.000   3.839
  133        1.210   2.716   0.000   3.926
  134        1.210   2.716   0.000   3.926
  135        1.210   2.716   0.000   3.926
  136        1.210   2.716   0.000   3.926
  137        1.210   2.716   0.000   3.926
  138        1.210   2.716   0.000   3.926
  139        1.210   2.716   0.000   3.925
  140        1.210   2.716   0.000   3.926
  141        1.586   3.537   0.000   5.123
  142        1.586   3.536   0.000   5.122
  143        1.586   3.536   0.000   5.122
  144        1.586   3.536   0.000   5.122
  145        1.586   3.536   0.000   5.122
  146        1.586   3.537   0.000   5.123
  147        1.586   3.537   0.000   5.123
  148        1.586   3.537   0.000   5.123
  149        1.586   3.537   0.000   5.123
  150        1.586   3.536   0.000   5.122
  151        1.586   3.536   0.000   5.122
  152        1.586   3.536   0.000   5.122
  153        1.586   3.537   0.000   5.123
  154        1.586   3.537   0.000   5.123
  155        1.586   3.537   0.000   5.123
  156        1.586   3.536   0.000   5.122
--------------------------------------------------
tot        145.926 264.765  28.581 439.272
 


 magnetization (x)
 
# of ion       s       p       d       tot
------------------------------------------
    1        0.003   0.012   0.000   0.014
    2        0.003   0.012   0.000   0.015
    3        0.003   0.012   0.000   0.014
    4       -0.003  -0.012   0.000  -0.014
    5       -0.003  -0.012   0.000  -0.015
    6        0.003   0.012   0.000   0.015
    7       -0.003  -0.012   0.000  -0.015
    8       -0.003  -0.012   0.000  -0.014
    9       -0.003  -0.012   0.000  -0.015
   10        0.003   0.012   0.000   0.014
   11        0.003   0.012   0.000   0.015
   12       -0.003  -0.012   0.000  -0.015
   13        0.003   0.012   0.000   0.015
   14        0.003   0.012   0.000   0.014
   15       -0.003  -0.012   0.000  -0.014
   16       -0.003  -0.012   0.000  -0.014
   17        0.000   0.001   0.000   0.001
   18        0.000   0.001   0.000   0.001
   19        0.000   0.001   0.000   0.001
   20       -0.000  -0.001   0.000  -0.001
   21       -0.000  -0.001   0.000  -0.001
   22        0.000   0.001   0.000   0.001
   23       -0.000  -0.001   0.000  -0.001
   24       -0.000  -0.001   0.000  -0.001
   25       -0.000  -0.001   0.000  -0.001
   26        0.000   0.001   0.000   0.001
   27        0.000   0.001   0.000   0.001
   28       -0.000  -0.001   0.000  -0.001
   29        0.000   0.001   0.000   0.001
   30        0.000   0.001   0.000   0.001
   31       -0.000  -0.001   0.000  -0.001
   32       -0.000  -0.001   0.000  -0.001
   33       -0.000  -0.000   0.000  -0.000
   34       -0.000  -0.000   0.000  -0.000
   35       -0.000  -0.000   0.000  -0.000
   36        0.000   0.000   0.000   0.000
   37        0.000   0.000   0.000   0.000
   38       -0.000  -0.000   0.000  -0.000
   39        0.000   0.000   0.000   0.000
   40        0.000   0.000   0.000   0.000
   41        0.000   0.000   0.000   0.000
   42       -0.000  -0.000   0.000  -0.000
   43       -0.000  -0.000   0.000  -0.000
   44        0.000   0.000   0.000   0.000
   45       -0.000  -0.000   0.000  -0.000
   46       -0.000  -0.000   0.000  -0.000
   47        0.000   0.000   0.000   0.000
   48        0.000   0.000   0.000   0.000
   49        0.000   0.000   0.000   0.000
   50        0.000   0.000   0.000   0.000
   51        0.000   0.000   0.000   0.000
   52       -0.000  -0.000   0.000  -0.000
   53       -0.000  -0.000   0.000  -0.000
   54        0.000   0.000   0.000   0.000
   55       -0.000  -0.000   0.000  -0.000
   56       -0.000  -0.000   0.000  -0.000
   57       -0.000  -0.000   0.000  -0.000
   58        0.000   0.000   0.000   0.000
   59        0.000   0.000   0.000   0.000
   60       -0.000  -0.000   0.000  -0.000
   61        0.000   0.000   0.000   0.000
   62        0.000   0.000   0.000   0.000
   63       -0.000  -0.000   0.000  -0.000
   64       -0.000  -0.000   0.000  -0.000
   65        0.002   0.008   0.000   0.010
   66        0.002   0.009   0.000   0.010
   67       -0.002  -0.009   0.000  -0.010
   68       -0.002  -0.009   0.000  -0.010
   69        0.002   0.009   0.000   0.010
   70       -0.002  -0.008   0.000  -0.010
   71        0.002   0.008   0.000   0.010
   72       -0.002  -0.009   0.000  -0.010
   73        0.000   0.000   0.000   0.000
   74        0.000   0.000   0.000   0.000
   75       -0.000  -0.000   0.000  -0.000
   76       -0.000  -0.000   0.000  -0.000
   77        0.000   0.000   0.000   0.000
   78       -0.000  -0.000   0.000  -0.000
   79        0.000   0.000   0.000   0.000
   80       -0.000  -0.000   0.000  -0.000
   81        0.011   0.085   2.352   2.449
   82        0.011   0.085   2.353   2.449
   83       -0.011  -0.085  -2.353  -2.449
   84       -0.011  -0.085  -2.353  -2.449
   85        0.000  -0.000   0.000   0.000
   86        0.000  -0.000   0.000   0.000
   87        0.000  -0.000   0.000   0.000
   88       -0.000   0.000   0.000  -0.000
   89       -0.000   0.000   0.000  -0.000
   90        0.000  -0.000   0.000   0.000
   91       -0.000   0.000   0.000  -0.000
   92       -0.000   0.000   0.000  -0.000
   93       -0.000   0.000   0.000  -0.000
   94        0.000  -0.000   0.000   0.000
   95        0.000  -0.000   0.000   0.000
   96       -0.000   0.000   0.000  -0.000
   97        0.000  -0.000   0.000   0.000
   98        0.000  -0.000   0.000   0.000
   99       -0.000   0.000   0.000  -0.000
  100       -0.000   0.000   0.000  -0.000
  101       -0.001  -0.000   0.000  -0.001
  102       -0.001  -0.000   0.000  -0.001
  103       -0.001  -0.000   0.000  -0.001
  104        0.001   0.000   0.000   0.001
  105        0.001   0.000   0.000   0.001
  106       -0.001  -0.000   0.000  -0.001
  107        0.001   0.000   0.000   0.001
  108        0.001   0.000   0.000   0.001
  109        0.001   0.000   0.000   0.001
  110       -0.001  -0.000   0.000  -0.001
  111       -0.001  -0.000   0.000  -0.001
  112        0.001   0.000   0.000   0.001
  113       -0.001  -0.000   0.000  -0.001
  114       -0.001  -0.000   0.000  -0.001
  115        0.001   0.000   0.000   0.001
  116        0.001   0.000   0.000   0.001
  117        0.013   0.045   0.000   0.058
  118        0.014   0.045   0.000   0.059
  119        0.013   0.045   0.000   0.058
  120       -0.013  -0.045   0.000  -0.058
  121       -0.013  -0.045   0.000  -0.059
  122        0.014   0.045   0.000   0.059
  123       -0.014  -0.045   0.000  -0.059
  124       -0.013  -0.045   0.000  -0.058
  125       -0.014  -0.045   0.000  -0.059
  126        0.013   0.045   0.000   0.058
  127        0.014   0.045   0.000   0.059
  128       -0.013  -0.045   0.000  -0.059
  129        0.013   0.045   0.000   0.059
  130        0.013   0.045   0.000   0.058
  131       -0.013  -0.045   0.000  -0.058
  132       -0.013  -0.045   0.000  -0.058
  133        0.000   0.001   0.000   0.001
  134        0.000   0.001   0.000   0.001
  135       -0.000  -0.001   0.000  -0.001
  136       -0.000  -0.001   0.000  -0.001
  137        0.000   0.001   0.000   0.001
  138       -0.000  -0.001   0.000  -0.001
  139        0.000   0.001   0.000   0.001
  140       -0.000  -0.001   0.000  -0.001
  141        0.000   0.001   0.000   0.001
  142        0.000   0.001   0.000   0.001
  143        0.000   0.001   0.000   0.001
  144       -0.000  -0.001   0.000  -0.001
  145       -0.000  -0.001   0.000  -0.001
  146        0.000   0.001   0.000   0.001
  147       -0.000  -0.001   0.000  -0.001
  148       -0.000  -0.001   0.000  -0.001
  149       -0.000  -0.001   0.000  -0.001
  150        0.000   0.001   0.000   0.001
  151        0.000   0.001   0.000   0.001
  152       -0.000  -0.001   0.000  -0.001
  153        0.000   0.001   0.000   0.001
  154        0.000   0.001   0.000   0.001
  155       -0.000  -0.001   0.000  -0.001
  156       -0.000  -0.001   0.000  -0.001
--------------------------------------------------
tot         -0.000  -0.000   0.000  -0.000
 

 total amount of memory used by VASP MPI-rank0   108042. kBytes
=======================================================================

   base      :      30000. kBytes
   nonlr-proj:       6516. kBytes
   fftplans  :      11230. kBytes
   grid      :      31214. kBytes
   one-center:       1213. kBytes
   wavefun   :      27869. kBytes
 
  
  
 General timing and accounting informations for this job:
 ========================================================
  
                  Total CPU time used (sec):      999.314
                            User time (sec):      889.888
                          System time (sec):      109.426
                         Elapsed time (sec):     1016.042
  
                   Maximum memory used (kb):      976260.
                   Average memory used (kb):           0.
  
                          Minor page faults:       956080
                          Major page faults:            7
                 Voluntary context switches:        40822
