       N       E                     dE             d eps       ncg     rms          rms(c)
DAV:   1     0.457036071070E+04    0.45704E+04   -0.28562E+05 11520   0.121E+03
DAV:   2    -0.532432406431E+03   -0.51028E+04   -0.47500E+04 13600   0.277E+02
DAV:   3    -0.118002410398E+04   -0.64759E+03   -0.63455E+03 14592   0.104E+02
DAV:   4    -0.120252960802E+04   -0.22506E+02   -0.22324E+02 15872   0.252E+01
DAV:   5    -0.120320194210E+04   -0.67233E+00   -0.67045E+00 16480   0.378E+00
DAV:   6    -0.120323371997E+04   -0.31778E-01   -0.31763E-01 17376   0.901E-01
DAV:   7    -0.120323429792E+04   -0.57796E-03   -0.57771E-03 16736   0.986E-02
DAV:   8    -0.120323431374E+04   -0.15822E-04   -0.15816E-04 17184   0.163E-02    0.116E+02
DAV:   9    -0.132770009420E+04   -0.12447E+03   -0.41615E+03 16640   0.856E+01    0.514E+02
DAV:  10    -0.127286938205E+04    0.54831E+02   -0.54293E+02 14592   0.290E+01    0.335E+02
DAV:  11    -0.825966703144E+03    0.44690E+03   -0.34386E+02 16768   0.492E+01    0.160E+02
DAV:  12    -0.686920278879E+03    0.13905E+03   -0.17961E+02 16960   0.856E+01    0.534E+01
DAV:  13    -0.725954367590E+03   -0.39034E+02   -0.68559E+01 14880   0.114E+01    0.343E+01
DAV:  14    -0.798357504602E+03   -0.72403E+02   -0.88930E+01 16160   0.202E+01    0.514E+01
DAV:  15    -0.806072679478E+03   -0.77152E+01   -0.17143E+02 16288   0.197E+01    0.377E+01
DAV:  16    -0.821476858830E+03   -0.15404E+02   -0.51606E+01 16448   0.156E+01    0.383E+01
DAV:  17    -0.840695363784E+03   -0.19219E+02   -0.43659E+01 16128   0.144E+01    0.262E+01
DAV:  18    -0.870331336946E+03   -0.29636E+02   -0.40550E+01 16320   0.113E+01    0.307E+01
DAV:  19    -0.884317948815E+03   -0.13987E+02   -0.14271E+01 15136   0.934E+00    0.283E+01
DAV:  20    -0.925629061483E+03   -0.41311E+02   -0.23468E+01 14816   0.999E+00    0.209E+01
DAV:  21    -0.974469529190E+03   -0.48840E+02   -0.23073E+01 15168   0.891E+00    0.170E+01
DAV:  22    -0.102512206220E+04   -0.50653E+02   -0.18801E+01 14816   0.729E+00    0.189E+01
DAV:  23    -0.105963688280E+04   -0.34515E+02   -0.11507E+01 14624   0.601E+00    0.176E+01
DAV:  24    -0.110017229585E+04   -0.40535E+02   -0.29565E+01 14720   0.780E+00    0.157E+01
DAV:  25    -0.112638576370E+04   -0.26213E+02   -0.24444E+01 14912   0.735E+00    0.147E+01
DAV:  26    -0.114026178506E+04   -0.13876E+02   -0.60821E+00 14912   0.399E+00    0.125E+01
DAV:  27    -0.115532420224E+04   -0.15062E+02   -0.12760E+01 14816   0.625E+00    0.117E+01
DAV:  28    -0.116097149861E+04   -0.56473E+01   -0.35201E+00 14400   0.354E+00    0.532E+00
DAV:  29    -0.116575816274E+04   -0.47867E+01   -0.13691E+00 14720   0.215E+00    0.477E+00
DAV:  30    -0.116816924027E+04   -0.24111E+01   -0.11901E+00 15520   0.150E+00    0.418E+00
DAV:  31    -0.117003010274E+04   -0.18609E+01   -0.24374E+00 14528   0.175E+00    0.307E+00
DAV:  32    -0.117172223183E+04   -0.16921E+01   -0.40759E-01 14016   0.127E+00    0.271E+00
DAV:  33    -0.117239394246E+04   -0.67171E+00   -0.18816E-01 14400   0.764E-01    0.211E+00
DAV:  34    -0.117292253835E+04   -0.52860E+00   -0.10433E-01 14400   0.593E-01    0.146E+00
DAV:  35    -0.117345992352E+04   -0.53739E+00   -0.16677E-01 13760   0.457E-01    0.115E+00
DAV:  36    -0.117384350951E+04   -0.38359E+00   -0.15433E-01 14432   0.417E-01    0.939E-01
DAV:  37    -0.117397588347E+04   -0.13237E+00   -0.80395E-02 13824   0.251E-01    0.823E-01
DAV:  38    -0.117399916930E+04   -0.23286E-01   -0.14505E-02 14080   0.164E-01    0.720E-01
DAV:  39    -0.117401355981E+04   -0.14391E-01   -0.61181E-03 13824   0.113E-01    0.636E-01
DAV:  40    -0.117401725316E+04   -0.36934E-02   -0.44429E-03 13888   0.959E-02    0.526E-01
DAV:  41    -0.117401888053E+04   -0.16274E-02   -0.22118E-03 13728   0.551E-02    0.447E-01
DAV:  42    -0.117402084063E+04   -0.19601E-02   -0.20453E-03 13184   0.477E-02    0.378E-01
DAV:  43    -0.117402230481E+04   -0.14642E-02   -0.12406E-03 13568   0.352E-02    0.298E-01
DAV:  44    -0.117402350626E+04   -0.12014E-02   -0.26509E-04 13600   0.208E-02    0.237E-01
DAV:  45    -0.117402426307E+04   -0.75682E-03   -0.22152E-04 13888   0.171E-02    0.190E-01
DAV:  46    -0.117402478499E+04   -0.52192E-03   -0.19580E-04 13440   0.148E-02    0.141E-01
DAV:  47    -0.117402505086E+04   -0.26586E-03   -0.58052E-05 13632   0.108E-02    0.108E-01
DAV:  48    -0.117402519962E+04   -0.14877E-03   -0.19119E-05 13504   0.731E-03    0.822E-02
DAV:  49    -0.117402531304E+04   -0.11342E-03   -0.86068E-06 12736   0.520E-03    0.611E-02
DAV:  50    -0.117402539032E+04   -0.77277E-04   -0.43426E-06 12064   0.379E-03    0.458E-02
DAV:  51    -0.117402542012E+04   -0.29798E-04   -0.88340E-07 10464   0.197E-03    0.384E-02
DAV:  52    -0.117402544057E+04   -0.20454E-04   -0.49366E-07  9856   0.150E-03    0.313E-02
DAV:  53    -0.117402544983E+04   -0.92557E-05   -0.35116E-07 10272   0.101E-03    0.259E-02
DAV:  54    -0.117402541499E+04    0.34834E-04   -0.26244E-06 10816   0.336E-03    0.181E-03
DAV:  55    -0.117402543157E+04   -0.16570E-04   -0.51636E-07  9696   0.115E-03    0.144E-03
DAV:  56    -0.117402545100E+04   -0.19439E-04   -0.35124E-07  9600   0.944E-04    0.824E-04
DAV:  57    -0.117402545639E+04   -0.53871E-05   -0.99344E-08 10080   0.552E-04    0.623E-04
DAV:  58    -0.117402545827E+04   -0.18798E-05   -0.36455E-08  9408   0.317E-04    0.485E-04
DAV:  59    -0.117402546042E+04   -0.21517E-05   -0.34857E-08  9088   0.311E-04    0.342E-04
DAV:  60    -0.117402546160E+04   -0.11778E-05   -0.21089E-08  9536   0.241E-04    0.218E-04
DAV:  61    -0.117402546231E+04   -0.71017E-06   -0.17418E-08  8992   0.230E-04
   1 F= -.11862995E+04 E0= -.11862879E+04  d E =-.118630E+04  mag=    16.5488
