 vasp.6.0.8 29Jun18 (build Mar 14 2019 11:44:20) complex                        
  
 executed on             LinuxIFC date 2020.12.26  00:30:30
 running  128 mpi-ranks, with    1 threads/rank
 distrk:  each k-point on  128 cores,    1 groups
 distr:  one band on NCORES_PER_BAND=   4 cores,   32 groups


--------------------------------------------------------------------------------------------------------


 INCAR:
 POTCAR:    PAW_PBE C 08Apr2002                   
 POTCAR:    PAW_PBE Fe 06Sep2000                  
 POTCAR:    PAW_PBE H 15Jun2001                   
 POTCAR:    PAW_PBE N 08Apr2002                   
 POTCAR:    PAW_PBE O 08Apr2002                   
 POTCAR:    PAW_PBE C 08Apr2002                   
   VRHFIN =C: s2p2                                                              
   LEXCH  = PE                                                                  
   EATOM  =   147.1560 eV,   10.8157 Ry                                         
                                                                                
   TITEL  = PAW_PBE C 08Apr2002                                                 
   LULTRA =        F    use ultrasoft PP ?                                      
   IUNSCR =        1    unscreen: 0-lin 1-nonlin 2-no                           
   RPACOR =    1.200    partial core radius                                     
   POMASS =   12.011; ZVAL   =    4.000    mass and valenz                      
   RCORE  =    1.500    outmost cutoff radius                                   
   RWIGS  =    1.630; RWIGS  =    0.863    wigner-seitz radius (au A)           
   ENMAX  =  400.000; ENMIN  =  300.000 eV                                      
   ICORE  =        2    local potential                                         
   LCOR   =        T    correct aug charges                                     
   LPAW   =        T    paw PP                                                  
   EAUG   =  644.873                                                            
   DEXC   =    0.000                                                            
   RMAX   =    1.529    core radius for proj-oper                               
   RAUG   =    1.300    factor for augmentation sphere                          
   RDEP   =    1.501    radius for radial grids                                 
   RDEPT  =    1.300    core radius for aug-charge                              
                                                                                
   Atomic configuration                                                         
    4 entries                                                                   
     n  l   j            E        occ.                                          
     1  0  0.50      -273.3789   2.0000                                         
     2  0  0.50       -13.7508   2.0000                                         
     2  1  0.50        -5.2854   2.0000                                         
     3  2  1.50        -5.4423   0.0000                                         
   Description                                                                  
     l       E           TYP  RCUT    TYP  RCUT                                 
     0    -13.7508458     23  1.200                                             
     0     -8.2022199     23  1.200                                             
     1     -5.2854383     23  1.500                                             
     1     34.0145650     23  1.500                                             
     2     -5.4423304      7  1.500                                             
  local pseudopotential read in
  partial core-charges read in
  partial kinetic energy density read in
  atomic valenz-charges read in
  non local Contribution for L=           0  read in
    real space projection operators read in
  non local Contribution for L=           0  read in
    real space projection operators read in
  non local Contribution for L=           1  read in
    real space projection operators read in
  non local Contribution for L=           1  read in
    real space projection operators read in
    PAW grid and wavefunctions read in
 
   number of l-projection  operators is LMAX  =           4
   number of lm-projection operators is LMMAX =           8
 
 POTCAR:    PAW_PBE Fe 06Sep2000                  
   VRHFIN =Fe:  d7 s1                                                           
   LEXCH  = PE                                                                  
   EATOM  =   594.3153 eV,   43.6809 Ry                                         
                                                                                
   TITEL  = PAW_PBE Fe 06Sep2000                                                
   LULTRA =        F    use ultrasoft PP ?                                      
   IUNSCR =        1    unscreen: 0-lin 1-nonlin 2-no                           
   RPACOR =    2.000    partial core radius                                     
   POMASS =   55.847; ZVAL   =    8.000    mass and valenz                      
   RCORE  =    2.300    outmost cutoff radius                                   
   RWIGS  =    2.460; RWIGS  =    1.302    wigner-seitz radius (au A)           
   ENMAX  =  267.882; ENMIN  =  200.911 eV                                      
   RCLOC  =    1.701    cutoff for local pot                                    
   LCOR   =        T    correct aug charges                                     
   LPAW   =        T    paw PP                                                  
   EAUG   =  511.368                                                            
   DEXC   =    0.000                                                            
   RMAX   =    2.356    core radius for proj-oper                               
   RAUG   =    1.300    factor for augmentation sphere                          
   RDEP   =    2.442    radius for radial grids                                 
   RDEPT  =    1.890    core radius for aug-charge                              
                                                                                
   Atomic configuration                                                         
    9 entries                                                                   
     n  l   j            E        occ.                                          
     1  0  0.50     -6993.8440   2.0000                                         
     2  0  0.50      -814.6047   2.0000                                         
     2  1  1.50      -693.3689   6.0000                                         
     3  0  0.50       -89.4732   2.0000                                         
     3  1  1.50       -55.6373   6.0000                                         
     3  2  2.50        -3.8151   7.0000                                         
     4  0  0.50        -4.2551   1.0000                                         
     4  1  1.50        -3.4015   0.0000                                         
     4  3  2.50        -1.3606   0.0000                                         
   Description                                                                  
     l       E           TYP  RCUT    TYP  RCUT                                 
     2     -3.8151135     23  2.300                                             
     2     -5.1756961     23  2.300                                             
     0     -4.2550963     23  2.300                                             
     0      7.2035603     23  2.300                                             
     1     -2.7211652     23  2.300                                             
     1     18.4316424     23  2.300                                             
  local pseudopotential read in
  partial core-charges read in
  partial kinetic energy density read in
  atomic valenz-charges read in
  non local Contribution for L=           2  read in
    real space projection operators read in
  non local Contribution for L=           2  read in
    real space projection operators read in
  non local Contribution for L=           0  read in
    real space projection operators read in
  non local Contribution for L=           0  read in
    real space projection operators read in
  non local Contribution for L=           1  read in
    real space projection operators read in
  non local Contribution for L=           1  read in
    real space projection operators read in
    PAW grid and wavefunctions read in
 
   number of l-projection  operators is LMAX  =           6
   number of lm-projection operators is LMMAX =          18
 
 POTCAR:    PAW_PBE H 15Jun2001                   
   VRHFIN =H: ultrasoft test                                                    
   LEXCH  = PE                                                                  
   EATOM  =    12.4884 eV,    0.9179 Ry                                         
                                                                                
   TITEL  = PAW_PBE H 15Jun2001                                                 
   LULTRA =        F    use ultrasoft PP ?                                      
   IUNSCR =        0    unscreen: 0-lin 1-nonlin 2-no                           
   RPACOR =    0.000    partial core radius                                     
   POMASS =    1.000; ZVAL   =    1.000    mass and valenz                      
   RCORE  =    1.100    outmost cutoff radius                                   
   RWIGS  =    0.700; RWIGS  =    0.370    wigner-seitz radius (au A)           
   ENMAX  =  250.000; ENMIN  =  200.000 eV                                      
   RCLOC  =    0.701    cutoff for local pot                                    
   LCOR   =        T    correct aug charges                                     
   LPAW   =        T    paw PP                                                  
   EAUG   =  400.000                                                            
   RMAX   =    1.123    core radius for proj-oper                               
   RAUG   =    1.200    factor for augmentation sphere                          
   RDEP   =    1.112    radius for radial grids                                 
   RDEPT  =    0.926    core radius for aug-charge                              
                                                                                
   Atomic configuration                                                         
    2 entries                                                                   
     n  l   j            E        occ.                                          
     1  0  0.50        -6.4927   1.0000                                         
     2  1  0.50        -3.4015   0.0000                                         
   Description                                                                  
     l       E           TYP  RCUT    TYP  RCUT                                 
     0     -6.4927494     23  1.100                                             
     0      6.8029130     23  1.100                                             
     1     -4.0817478     23  1.100                                             
  local pseudopotential read in
  atomic valenz-charges read in
  non local Contribution for L=           0  read in
    real space projection operators read in
  non local Contribution for L=           0  read in
    real space projection operators read in
  non local Contribution for L=           1  read in
    real space projection operators read in
    PAW grid and wavefunctions read in
 
   number of l-projection  operators is LMAX  =           3
   number of lm-projection operators is LMMAX =           5
 
 POTCAR:    PAW_PBE N 08Apr2002                   
   VRHFIN =N: s2p3                                                              
   LEXCH  = PE                                                                  
   EATOM  =   264.5486 eV,   19.4438 Ry                                         
                                                                                
   TITEL  = PAW_PBE N 08Apr2002                                                 
   LULTRA =        F    use ultrasoft PP ?                                      
   IUNSCR =        1    unscreen: 0-lin 1-nonlin 2-no                           
   RPACOR =    1.200    partial core radius                                     
   POMASS =   14.001; ZVAL   =    5.000    mass and valenz                      
   RCORE  =    1.500    outmost cutoff radius                                   
   RWIGS  =    1.400; RWIGS  =    0.741    wigner-seitz radius (au A)           
   ENMAX  =  400.000; ENMIN  =  300.000 eV                                      
   ICORE  =        2    local potential                                         
   LCOR   =        T    correct aug charges                                     
   LPAW   =        T    paw PP                                                  
   EAUG   =  627.112                                                            
   DEXC   =    0.000                                                            
   RMAX   =    1.529    core radius for proj-oper                               
   RAUG   =    1.300    factor for augmentation sphere                          
   RDEP   =    1.514    radius for radial grids                                 
   RDEPT  =    1.338    core radius for aug-charge                              
                                                                                
   Atomic configuration                                                         
    4 entries                                                                   
     n  l   j            E        occ.                                          
     1  0  0.50      -384.7179   2.0000                                         
     2  0  0.50       -18.5828   2.0000                                         
     2  1  0.50        -7.0898   3.0000                                         
     3  2  1.50        -6.8029   0.0000                                         
   Description                                                                  
     l       E           TYP  RCUT    TYP  RCUT                                 
     0    -18.5828119     23  1.200                                             
     0    -13.5018863     23  1.200                                             
     1     -7.0897853     23  1.500                                             
     1      9.5240782     23  1.500                                             
     2     -6.8029130      7  1.500                                             
  local pseudopotential read in
  partial core-charges read in
  partial kinetic energy density read in
  atomic valenz-charges read in
  non local Contribution for L=           0  read in
    real space projection operators read in
  non local Contribution for L=           0  read in
    real space projection operators read in
  non local Contribution for L=           1  read in
    real space projection operators read in
  non local Contribution for L=           1  read in
    real space projection operators read in
    PAW grid and wavefunctions read in
 
   number of l-projection  operators is LMAX  =           4
   number of lm-projection operators is LMMAX =           8
 
 POTCAR:    PAW_PBE O 08Apr2002                   
   VRHFIN =O: s2p4                                                              
   LEXCH  = PE                                                                  
   EATOM  =   432.3788 eV,   31.7789 Ry                                         
                                                                                
   TITEL  = PAW_PBE O 08Apr2002                                                 
   LULTRA =        F    use ultrasoft PP ?                                      
   IUNSCR =        1    unscreen: 0-lin 1-nonlin 2-no                           
   RPACOR =    1.200    partial core radius                                     
   POMASS =   16.000; ZVAL   =    6.000    mass and valenz                      
   RCORE  =    1.520    outmost cutoff radius                                   
   RWIGS  =    1.550; RWIGS  =    0.820    wigner-seitz radius (au A)           
   ENMAX  =  400.000; ENMIN  =  300.000 eV                                      
   ICORE  =        2    local potential                                         
   LCOR   =        T    correct aug charges                                     
   LPAW   =        T    paw PP                                                  
   EAUG   =  605.392                                                            
   DEXC   =    0.000                                                            
   RMAX   =    1.553    core radius for proj-oper                               
   RAUG   =    1.300    factor for augmentation sphere                          
   RDEP   =    1.550    radius for radial grids                                 
   RDEPT  =    1.329    core radius for aug-charge                              
                                                                                
   Atomic configuration                                                         
    4 entries                                                                   
     n  l   j            E        occ.                                          
     1  0  0.50      -514.6923   2.0000                                         
     2  0  0.50       -23.9615   2.0000                                         
     2  1  0.50        -9.0305   4.0000                                         
     3  2  1.50        -9.5241   0.0000                                         
   Description                                                                  
     l       E           TYP  RCUT    TYP  RCUT                                 
     0    -23.9615318     23  1.200                                             
     0     -9.5240782     23  1.200                                             
     1     -9.0304911     23  1.520                                             
     1      8.1634956     23  1.520                                             
     2     -9.5240782      7  1.500                                             
  local pseudopotential read in
  partial core-charges read in
  partial kinetic energy density read in
  kinetic energy density of atom read in
  atomic valenz-charges read in
  non local Contribution for L=           0  read in
    real space projection operators read in
  non local Contribution for L=           0  read in
    real space projection operators read in
  non local Contribution for L=           1  read in
    real space projection operators read in
  non local Contribution for L=           1  read in
    real space projection operators read in
    PAW grid and wavefunctions read in
 
   number of l-projection  operators is LMAX  =           4
   number of lm-projection operators is LMMAX =           8
 
 Optimization of the real space projectors (new method)

 maximal supplied QI-value         = 25.13
 optimisation between [QCUT,QGAM] = [ 12.32, 24.88] = [ 42.47,173.37] Ry 
 Optimized for a Real-space Cutoff    1.06 Angstroem

   l    n(q)    QCUT    max X(q) W(low)/X(q) W(high)/X(q)  e(spline) 
   0      8    12.315   115.676    0.34E-03    0.18E-03    0.23E-06
   0      8    12.315    87.132    0.34E-03    0.18E-03    0.22E-06
   1      7    12.315     4.429    0.45E-03    0.12E-03    0.18E-06
   1      7    12.315     2.733    0.35E-03    0.97E-04    0.15E-06
 Optimization of the real space projectors (new method)

 maximal supplied QI-value         = 16.25
 optimisation between [QCUT,QGAM] = [ 12.51, 25.03] = [ 43.85,175.40] Ry 
 Optimized for a Real-space Cutoff    1.35 Angstroem

   l    n(q)    QCUT    max X(q) W(low)/X(q) W(high)/X(q)  e(spline) 
   2      9    12.514    80.901    0.12E-03    0.34E-03    0.58E-06
   2      9    12.514    75.754    0.12E-03    0.34E-03    0.59E-06
   0     10    12.514    58.752    0.17E-03    0.81E-04    0.93E-07
   0     10    12.514    30.679    0.15E-03    0.74E-04    0.88E-07
   1     10    12.514    17.977    0.11E-03    0.79E-04    0.24E-06
   1     10    12.514    13.559    0.97E-04    0.61E-04    0.20E-06
 Optimization of the real space projectors (new method)

 maximal supplied QI-value         = 34.20
 optimisation between [QCUT,QGAM] = [ 12.31, 24.97] = [ 42.46,174.58] Ry 
 Optimized for a Real-space Cutoff    1.00 Angstroem

   l    n(q)    QCUT    max X(q) W(low)/X(q) W(high)/X(q)  e(spline) 
   0      7    12.313    19.460    0.14E-03    0.42E-03    0.16E-06
   0      7    12.313    12.209    0.12E-03    0.40E-03    0.16E-06
   1      7    12.313     4.655    0.33E-03    0.59E-03    0.89E-07
 Optimization of the real space projectors (new method)

 maximal supplied QI-value         = 25.13
 optimisation between [QCUT,QGAM] = [ 12.32, 24.88] = [ 42.47,173.37] Ry 
 Optimized for a Real-space Cutoff    1.20 Angstroem

   l    n(q)    QCUT    max X(q) W(low)/X(q) W(high)/X(q)  e(spline) 
   0      9    12.315    79.467    0.14E-03    0.22E-04    0.37E-06
   0      9    12.315    66.151    0.14E-03    0.23E-04    0.36E-06
   1      8    12.315    22.077    0.30E-03    0.54E-03    0.45E-06
   1      8    12.315    15.894    0.30E-03    0.55E-03    0.45E-06
 Optimization of the real space projectors (new method)

 maximal supplied QI-value         = 24.76
 optimisation between [QCUT,QGAM] = [ 12.38, 25.00] = [ 42.90,175.06] Ry 
 Optimized for a Real-space Cutoff    1.13 Angstroem

   l    n(q)    QCUT    max X(q) W(low)/X(q) W(high)/X(q)  e(spline) 
   0      8    12.378    20.381    0.16E-03    0.54E-05    0.27E-06
   0      8    12.378    15.268    0.17E-03    0.61E-05    0.29E-06
   1      8    12.378     5.964    0.38E-03    0.23E-03    0.28E-06
   1      8    12.378     5.382    0.33E-03    0.20E-03    0.25E-06
  PAW_PBE C 08Apr2002                   :
 energy of atom  1       EATOM= -147.1560
 kinetic energy error for atom=    0.0057 (will be added to EATOM!!)
  PAW_PBE Fe 06Sep2000                  :
 energy of atom  2       EATOM= -594.3153
 kinetic energy error for atom=    0.0017 (will be added to EATOM!!)
  PAW_PBE H 15Jun2001                   :
 energy of atom  3       EATOM=  -12.4884
 kinetic energy error for atom=    0.0004 (will be added to EATOM!!)
  PAW_PBE N 08Apr2002                   :
 energy of atom  4       EATOM= -264.5486
 kinetic energy error for atom=    0.0103 (will be added to EATOM!!)
  PAW_PBE O 08Apr2002                   :
 energy of atom  5       EATOM= -432.3788
 kinetic energy error for atom=    0.0168 (will be added to EATOM!!)
 
 
 POSCAR:  C Fe  H  N  O
  positions in direct lattice
  velocities in cartesian coordinates
 exchange correlation table for  LEXCH =        8
   RHO(1)=    0.500       N(1)  =     2000
   RHO(2)=  100.500       N(2)  =     4000
 


--------------------------------------------------------------------------------------------------------


 ion  position               nearest neighbor table
   1  0.853  0.966  0.103- 107 1.09 117 1.35  65 1.40
   2  0.926  0.977  0.442- 112 1.09 118 1.35  65 1.40
   3  0.849  0.817  0.898- 116 1.09 119 1.35  66 1.40
   4  0.645  0.465  0.611- 110 1.09 120 1.35  67 1.40
   5  0.577  0.306  0.068- 111 1.09 121 1.35  68 1.40
   6  0.073  0.805  0.059- 115 1.09 122 1.35  69 1.40
   7  0.573  0.476  0.950- 101 1.09 123 1.35  67 1.40
   8  0.649  0.318  0.405- 113 1.09 124 1.35  68 1.40
   9  0.422  0.475  0.451- 114 1.09 125 1.35  70 1.40
  10  0.145  0.816  0.397- 104 1.09 126 1.35  69 1.40
  11  0.078  0.975  0.941- 105 1.09 127 1.35  71 1.40
  12  0.426  0.304  0.570- 102 1.09 128 1.35  72 1.40
  13  0.921  0.806  0.559- 108 1.09 129 1.35  66 1.40
  14  0.150  0.963  0.603- 109 1.09 130 1.35  71 1.40
  15  0.353  0.315  0.909- 106 1.09 131 1.35  72 1.40
  16  0.350  0.464  0.113- 103 1.09 132 1.35  70 1.40
  17  0.776  0.044  0.451- 141 1.23 133 1.41  33 1.48
  18  0.863  0.069  0.072- 142 1.23 133 1.42  34 1.48
  19  0.856  0.715  0.935- 143 1.23 134 1.42  35 1.48
  20  0.637  0.568  0.575- 144 1.23 135 1.42  36 1.48
  21  0.644  0.215  0.442- 145 1.23 136 1.42  37 1.48
  22  0.224  0.737  0.055- 146 1.23 137 1.41  38 1.48
  23  0.724  0.544  0.953- 147 1.23 135 1.41  39 1.48
  24  0.730  0.239  0.063- 148 1.23 136 1.41  40 1.48
  25  0.271  0.543  0.455- 149 1.23 138 1.41  41 1.48
  26  0.137  0.713  0.435- 150 1.23 137 1.42  42 1.48
  27  0.145  0.066  0.567- 151 1.23 139 1.42  43 1.48
  28  0.363  0.212  0.940- 152 1.23 140 1.42  44 1.48
  29  0.770  0.738  0.556- 153 1.23 134 1.41  45 1.48
  30  0.231  0.041  0.946- 154 1.23 139 1.41  46 1.48
  31  0.276  0.236  0.562- 155 1.23 140 1.41  47 1.48
  32  0.358  0.566  0.076- 156 1.23 138 1.42  48 1.48
  33  0.742  0.088  0.443-  49 1.39  73 1.42  17 1.48
  34  0.830  0.112  0.077-  50 1.39  73 1.42  18 1.48
  35  0.823  0.671  0.933-  51 1.39  74 1.42  19 1.48
  36  0.670  0.611  0.576-  52 1.39  75 1.42  20 1.48
  37  0.678  0.171  0.439-  53 1.39  76 1.42  21 1.48
  38  0.259  0.693  0.067-  54 1.39  77 1.42  22 1.48
  39  0.758  0.588  0.941-  55 1.39  75 1.42  23 1.48
  40  0.765  0.196  0.072-  56 1.39  76 1.42  24 1.48
  41  0.236  0.586  0.444-  57 1.39  78 1.42  25 1.48
  42  0.171  0.670  0.434-  58 1.39  77 1.42  26 1.48
  43  0.178  0.109  0.571-  59 1.39  79 1.42  27 1.48
  44  0.330  0.168  0.934-  60 1.39  80 1.42  28 1.48
  45  0.735  0.695  0.567-  61 1.39  74 1.42  29 1.48
  46  0.266  0.085  0.937-  62 1.39  79 1.42  30 1.48
  47  0.243  0.193  0.569-  63 1.39  80 1.42  31 1.48
  48  0.324  0.610  0.078-  64 1.39  78 1.42  32 1.48
  49  0.683  0.097  0.619-  88 1.09  33 1.39  53 1.40
  50  0.857  0.145  0.900-  99 1.09  34 1.39  56 1.40
  51  0.850  0.638  0.110-  93 1.09  35 1.39  55 1.40
  52  0.643  0.644  0.398-  90 1.09  36 1.39  61 1.40
  53  0.651  0.139  0.617-  98 1.09  37 1.39  49 1.40
  54  0.319  0.684  0.894-  96 1.09  38 1.39  64 1.40
  55  0.818  0.597  0.115-  86 1.09  39 1.39  51 1.40
  56  0.825  0.187  0.898-  87 1.09  40 1.39  50 1.40
  57  0.176  0.596  0.618-  95 1.09  41 1.39  58 1.40
  58  0.144  0.637  0.613-  91 1.09  42 1.39  57 1.40
  59  0.151  0.142  0.395-  92 1.09  43 1.39  63 1.40
  60  0.357  0.135  0.110-  85 1.09  44 1.39  62 1.40
  61  0.676  0.685  0.394-  89 1.09  45 1.39  52 1.40
  62  0.325  0.094  0.111- 100 1.09  46 1.39  60 1.40
  63  0.183  0.184  0.394-  94 1.09  47 1.39  59 1.40
  64  0.351  0.643  0.899-  97 1.09  48 1.39  54 1.40
  65  0.868  0.996  0.268-   2 1.40   1 1.40 133 1.42
  66  0.863  0.787  0.734-  13 1.40   3 1.40 134 1.42
  67  0.631  0.495  0.775-   7 1.40   4 1.40 135 1.42
  68  0.636  0.288  0.242-   5 1.40   8 1.40 136 1.42
  69  0.131  0.786  0.233-   6 1.40  10 1.40 137 1.42
  70  0.364  0.494  0.277-   9 1.40  16 1.40 138 1.42
  71  0.137  0.993  0.767-  11 1.40  14 1.40 139 1.42
  72  0.368  0.285  0.744-  12 1.40  15 1.40 140 1.42
  73  0.770  0.121  0.259-  33 1.42  34 1.42  76 1.43
  74  0.763  0.662  0.752-  45 1.42  35 1.42  75 1.43
  75  0.730  0.620  0.757-  39 1.42  36 1.42  74 1.43
  76  0.737  0.163  0.257-  40 1.42  37 1.42  73 1.43
  77  0.231  0.661  0.253-  38 1.42  42 1.42  78 1.43
  78  0.264  0.619  0.258-  41 1.42  48 1.42  77 1.43
  79  0.238  0.118  0.753-  46 1.42  43 1.42  80 1.43
  80  0.271  0.160  0.752-  47 1.42  44 1.42  79 1.43
  81  0.970  0.891  1.000- 119 2.01 117 2.01 127 2.03 122 2.03  82 2.87  82 2.87
  82  0.027  0.890  0.500- 126 2.01 130 2.01 118 2.02 129 2.02  81 2.87  81 2.87
  83  0.527  0.390  0.510- 120 2.01 124 2.01 128 2.02 125 2.02  84 2.87  84 2.87
  84  0.470  0.390  0.011- 132 2.01 131 2.01 121 2.02 123 2.03  83 2.87  83 2.87
  85  0.403  0.143  0.247-  60 1.09
  86  0.838  0.571  0.254-  55 1.09
  87  0.845  0.212  0.759-  56 1.09
  88  0.662  0.071  0.757-  49 1.09
  89  0.655  0.711  0.254-  61 1.09
  90  0.597  0.636  0.262-  52 1.09
  91  0.098  0.645  0.749-  58 1.09
  92  0.105  0.135  0.258-  59 1.09
  93  0.896  0.646  0.246-  51 1.09
  94  0.163  0.210  0.257-  63 1.09
  95  0.156  0.570  0.758-  57 1.09
  96  0.339  0.710  0.754-  54 1.09
  97  0.398  0.635  0.763-  64 1.09
  98  0.604  0.146  0.754-  53 1.09
  99  0.903  0.138  0.763-  50 1.09
 100  0.346  0.068  0.249-  62 1.09
 101  0.545  0.489  0.107-   7 1.09
 102  0.455  0.291  0.413-  12 1.09
 103  0.311  0.466  0.949-  16 1.09
 104  0.185  0.814  0.561-  10 1.09
 105  0.050  0.988  0.097-  11 1.09
 106  0.314  0.312  0.074-  15 1.09
 107  0.814  0.969  0.939-   1 1.09
 108  0.949  0.792  0.403-  13 1.09
 109  0.190  0.965  0.439-  14 1.09
 110  0.685  0.467  0.446-   4 1.09
 111  0.549  0.292  0.913-   5 1.09
 112  0.955  0.989  0.598-   2 1.09
 113  0.689  0.316  0.569-   8 1.09
 114  0.450  0.488  0.607-   9 1.09
 115  0.044  0.791  0.903-   6 1.09
 116  0.810  0.815  0.063-   3 1.09
 117  0.900  0.931  0.176-   1 1.35 118 1.37  81 2.01
 118  0.944  0.937  0.383-   2 1.35 117 1.37  82 2.02
 119  0.897  0.852  0.824-   3 1.35 129 1.37  81 2.01
 120  0.599  0.430  0.686-   4 1.35 123 1.37  83 2.01
 121  0.557  0.345  0.125-   5 1.35 124 1.37  84 2.02
 122  0.054  0.844  0.116-   6 1.35 126 1.37  81 2.03
 123  0.554  0.437  0.894-   7 1.35 120 1.37  84 2.03
 124  0.601  0.352  0.332-   8 1.35 121 1.37  83 2.01
 125  0.441  0.436  0.395-   9 1.35 132 1.37  83 2.02
 126  0.098  0.851  0.323-  10 1.35 122 1.37  82 2.01
 127  0.057  0.936  0.884-  11 1.35 130 1.37  81 2.03
 128  0.444  0.344  0.627-  12 1.35 131 1.37  83 2.02
 129  0.941  0.845  0.616-  13 1.35 119 1.37  82 2.02
 130  0.101  0.928  0.677-  14 1.35 127 1.37  82 2.01
 131  0.400  0.350  0.835-  15 1.35 128 1.37  84 2.01
 132  0.397  0.429  0.187-  16 1.35 125 1.37  84 2.01
 133  0.834  0.037  0.262-  17 1.41  18 1.42  65 1.42
 134  0.828  0.746  0.744-  29 1.41  19 1.42  66 1.42
 135  0.666  0.536  0.766-  23 1.41  20 1.42  67 1.42
 136  0.672  0.246  0.251-  24 1.41  21 1.42  68 1.42
 137  0.166  0.744  0.243-  22 1.41  26 1.42  69 1.42
 138  0.329  0.535  0.268-  25 1.41  32 1.42  70 1.42
 139  0.173  0.034  0.758-  30 1.41  27 1.42  71 1.42
 140  0.334  0.243  0.751-  31 1.41  28 1.42  72 1.42
 141  0.755  0.015  0.610-  17 1.23
 142  0.913  0.059  0.914-  18 1.23
 143  0.907  0.724  0.091-  19 1.23
 144  0.586  0.558  0.418-  20 1.23
 145  0.593  0.224  0.600-  21 1.23
 146  0.244  0.766  0.894-  22 1.23
 147  0.744  0.515  0.114-  23 1.23
 148  0.750  0.268  0.902-  24 1.23
 149  0.250  0.514  0.617-  25 1.23
 150  0.087  0.723  0.592-  26 1.23
 151  0.095  0.057  0.409-  27 1.23
 152  0.413  0.221  0.098-  28 1.23
 153  0.749  0.767  0.395-  29 1.23
 154  0.251  0.012  0.105-  30 1.23
 155  0.255  0.266  0.404-  31 1.23
 156  0.408  0.557  0.919-  32 1.23
 

IMPORTANT INFORMATION: All symmetrisations will be switched off!
NOSYMM: (Re-)initialisation of all symmetry stuff for point group C_1.


----------------------------------------------------------------------------------------

                                     Primitive cell                                     

  volume of cell :    2697.9482

  direct lattice vectors                    reciprocal lattice vectors
    15.810742254 -0.003244316  0.022456214     0.063248226  0.000012580 -0.000060328
    -0.004615609 31.516583233  1.733221772     0.000009646  0.031849784 -0.002190329
     0.005109614  0.373757105  5.434860785    -0.000264411 -0.010157210  0.184696116

  length of vectors
    15.810758534 31.564205957  5.447699719     0.063248256  0.031925012  0.184975388

  position of ions in fractional coordinates (direct lattice)
     0.853200521  0.965803392  0.103291841
     0.926146698  0.976554087  0.441815006
     0.849003775  0.817393698  0.898119152
     0.645396913  0.464753964  0.611095242
     0.577020135  0.305629729  0.068268854
     0.072537389  0.804591738  0.058987982
     0.572879959  0.476047663  0.950417400
     0.649420531  0.317895935  0.405047291
     0.421993363  0.475291477  0.451398855
     0.145253795  0.816086709  0.396636903
     0.077588071  0.975036094  0.940901254
     0.426179429  0.304233353  0.569822288
     0.921332466  0.805610394  0.559435380
     0.149982415  0.962732030  0.603239693
     0.353272946  0.315012879  0.909355582
     0.349803764  0.463633121  0.113154509
     0.776078028  0.044399705  0.451026542
     0.863052921  0.068662269  0.072272320
     0.856436957  0.714575068  0.934511963
     0.636722312  0.567520574  0.574691210
     0.643595293  0.215040231  0.442232279
     0.224022324  0.737044374  0.055342722
     0.723794132  0.543771471  0.952735880
     0.730222425  0.239283395  0.062654798
     0.270640863  0.542656974  0.455409802
     0.137107209  0.713372215  0.435092981
     0.144716241  0.065641539  0.567274171
     0.363091195  0.212035990  0.939915155
     0.769560148  0.738386148  0.556204299
     0.231202549  0.041235099  0.945549176
     0.276202360  0.236437468  0.562468704
     0.357783337  0.566423182  0.076249701
     0.742195824  0.088191873  0.443240773
     0.829778670  0.112379362  0.076993255
     0.822891572  0.670854343  0.932533920
     0.670386624  0.611258890  0.576135870
     0.677580052  0.171434368  0.439064257
     0.258721340  0.693334494  0.067419503
     0.758162520  0.587541489  0.941408288
     0.765016773  0.195622329  0.072465521
     0.236191375  0.586404807  0.444144466
     0.171002710  0.669683867  0.434121030
     0.178438666  0.109282031  0.571499045
     0.330047798  0.168279352  0.934207792
     0.735213502  0.694606606  0.567130296
     0.265794749  0.084943684  0.936664741
     0.242548762  0.192603522  0.569323799
     0.324002798  0.610106312  0.077612431
     0.682757875  0.097226595  0.618664877
     0.857036863  0.145215216  0.900181222
     0.850211642  0.638227140  0.110122667
     0.643246399  0.643880440  0.398216572
     0.650563746  0.138642566  0.616514225
     0.318638599  0.684082788  0.893842571
     0.817952224  0.596779267  0.114621385
     0.824737655  0.186614367  0.897768743
     0.176393897  0.595692528  0.617978721
     0.143936006  0.637114398  0.612926408
     0.151292121  0.142165089  0.395342177
     0.357363942  0.135350434  0.109847202
     0.675577332  0.685326632  0.393584432
     0.325339726  0.093902166  0.111223302
     0.183228971  0.183617212  0.394213308
     0.351211151  0.642687703  0.899110408
     0.868309163  0.995567754  0.268449469
     0.862866214  0.787298821  0.734022518
     0.630825757  0.494734997  0.775343235
     0.635995500  0.287699333  0.241540890
     0.130699398  0.786034411  0.232967542
     0.363846420  0.493705893  0.277091056
     0.136765764  0.992915247  0.767143105
     0.368443462  0.285202670  0.744339611
     0.770090857  0.120839006  0.259171575
     0.763065750  0.662171245  0.752022432
     0.730224950  0.619971754  0.756585360
     0.737289348  0.162995043  0.256901685
     0.230944825  0.660956731  0.253252909
     0.264020598  0.618795463  0.258453874
     0.237997290  0.117671716  0.753409930
     0.270538196  0.159867893  0.752195886
     0.970027654  0.890693504  0.999787315
     0.027217585  0.890340724  0.499719494
     0.527277295  0.390449611  0.509673680
     0.470102365  0.390117158  0.010550309
     0.403362853  0.142780080  0.247058013
     0.838475075  0.571049215  0.253638659
     0.845119278  0.212477378  0.759068747
     0.662305961  0.071354568  0.757233584
     0.655173479  0.711022552  0.254193379
     0.597093072  0.636221836  0.262008866
     0.097662269  0.644783583  0.749359914
     0.105298681  0.134725134  0.258128789
     0.896444254  0.645900544  0.246053925
     0.162674589  0.209560149  0.256564735
     0.155961049  0.570023375  0.757884932
     0.339036444  0.709754153  0.753912778
     0.397568379  0.635008996  0.762928367
     0.604468004  0.146131863  0.753908074
     0.903202032  0.137758751  0.762942375
     0.345832955  0.067978896  0.249075938
     0.544772389  0.489073159  0.106888157
     0.454633876  0.291436980  0.413129993
     0.310511298  0.465951422  0.948628776
     0.184673560  0.813687855  0.560877376
     0.049991180  0.988453119  0.096787388
     0.313875282  0.312259523  0.074305602
     0.813727179  0.968571314  0.939034903
     0.949181676  0.792391103  0.403257399
     0.189631614  0.964670972  0.438995664
     0.684694600  0.467256326  0.446041785
     0.549335481  0.292211958  0.912818875
     0.954571696  0.989312906  0.598323532
     0.689008584  0.315912722  0.568824469
     0.449831491  0.488475487  0.607358515
     0.044376588  0.791489241  0.903175355
     0.809593599  0.815136683  0.062925525
     0.899613545  0.930631490  0.175914059
     0.944349348  0.937309620  0.383481400
     0.896717494  0.852095914  0.823788923
     0.598588059  0.429762946  0.685786635
     0.556600813  0.344703362  0.125134737
     0.053657576  0.843868818  0.115695141
     0.554074725  0.436775174  0.893699975
     0.601034540  0.352321458  0.331535108
     0.441426010  0.436087601  0.394656326
     0.098290080  0.850991537  0.322624659
     0.056827552  0.936019971  0.883946576
     0.444264678  0.343533840  0.627346097
     0.941085371  0.844774619  0.616075227
     0.101239326  0.928386685  0.676959416
     0.399540340  0.350236063  0.835480921
     0.397138365  0.428842738  0.187239508
     0.833951466  0.037316457  0.262032434
     0.827576195  0.745685511  0.743671462
     0.665581728  0.536454922  0.765825352
     0.672004848  0.246273891  0.250908416
     0.165674122  0.744365686  0.242634124
     0.328765802  0.535342108  0.267559898
     0.173001623  0.034318364  0.757829890
     0.334052528  0.243447246  0.750952106
     0.755246526  0.015193452  0.610477839
     0.913078525  0.059458048  0.913894788
     0.906625164  0.723949735  0.091415152
     0.586486035  0.558107431  0.418015158
     0.593314099  0.224198700  0.600075568
     0.244455460  0.765942964  0.893528237
     0.744358788  0.514803878  0.113607867
     0.750359540  0.268396703  0.901808348
     0.250176062  0.513722553  0.616981074
     0.086907016  0.722808352  0.592429498
     0.094724253  0.056525428  0.409203922
     0.412876216  0.221197287  0.098417939
     0.749123117  0.767363632  0.395271970
     0.251385316  0.012033240  0.105447986
     0.255265339  0.265731663  0.404088106
     0.408186085  0.557034221  0.919320470

  ion indices of the primitive-cell ions
   primitive index   ion index
                 1           1
                 2           2
                 3           3
                 4           4
                 5           5
                 6           6
                 7           7
                 8           8
                 9           9
                10          10
                11          11
                12          12
                13          13
                14          14
                15          15
                16          16
                17          17
                18          18
                19          19
                20          20
                21          21
                22          22
                23          23
                24          24
                25          25
                26          26
                27          27
                28          28
                29          29
                30          30
                31          31
                32          32
                33          33
                34          34
                35          35
                36          36
                37          37
                38          38
                39          39
                40          40
                41          41
                42          42
                43          43
                44          44
                45          45
                46          46
                47          47
                48          48
                49          49
                50          50
                51          51
                52          52
                53          53
                54          54
                55          55
                56          56
                57          57
                58          58
                59          59
                60          60
                61          61
                62          62
                63          63
                64          64
                65          65
                66          66
                67          67
                68          68
                69          69
                70          70
                71          71
                72          72
                73          73
                74          74
                75          75
                76          76
                77          77
                78          78
                79          79
                80          80
                81          81
                82          82
                83          83
                84          84
                85          85
                86          86
                87          87
                88          88
                89          89
                90          90
                91          91
                92          92
                93          93
                94          94
                95          95
                96          96
                97          97
                98          98
                99          99
               100         100
               101         101
               102         102
               103         103
               104         104
               105         105
               106         106
               107         107
               108         108
               109         109
               110         110
               111         111
               112         112
               113         113
               114         114
               115         115
               116         116
               117         117
               118         118
               119         119
               120         120
               121         121
               122         122
               123         123
               124         124
               125         125
               126         126
               127         127
               128         128
               129         129
               130         130
               131         131
               132         132
               133         133
               134         134
               135         135
               136         136
               137         137
               138         138
               139         139
               140         140
               141         141
               142         142
               143         143
               144         144
               145         145
               146         146
               147         147
               148         148
               149         149
               150         150
               151         151
               152         152
               153         153
               154         154
               155         155
               156         156

----------------------------------------------------------------------------------------

 
 

Automatic generation of k-mesh.
 generate k-points for:    2    1    4
Space group operators:
 irot       det(A)        alpha          n_x          n_y          n_z        tau_x        tau_y        tau_z
    1     1.000000     0.000000     1.000000     0.000000     0.000000     0.000000     0.000000     0.000000
 
 Subroutine IBZKPT returns following result:
 ===========================================
 
 Found      6 irreducible k-points:
 
 Following reciprocal coordinates:
            Coordinates               Weight
  0.000000  0.000000  0.000000      1.000000
  0.500000  0.000000 -0.000000      1.000000
 -0.000000 -0.000000  0.250000      2.000000
  0.500000 -0.000000  0.250000      2.000000
 -0.000000 -0.000000  0.500000      1.000000
  0.500000  0.000000  0.500000      1.000000
 
 Following cartesian coordinates:
            Coordinates               Weight
  0.000000  0.000000  0.000000      1.000000
  0.031624  0.000006 -0.000030      1.000000
 -0.000066 -0.002539  0.046174      2.000000
  0.031558 -0.002533  0.046144      2.000000
 -0.000132 -0.005079  0.092348      1.000000
  0.031492 -0.005072  0.092318      1.000000
 


--------------------------------------------------------------------------------------------------------




 Dimension of arrays:
   k-points           NKPTS =      6   k-points in BZ     NKDIM =      6   number of bands    NBANDS=    480
   number of dos      NEDOS =    301   number of ions     NIONS =    156
   non local maximal  LDIM  =      6   non local SUM 2l+1 LMDIM =     18
   total plane-waves  NPLWV = 663552
   max r-space proj   IRMAX =   2561   max aug-charges    IRDMAX=   8960
   dimension x,y,z NGX =    96 NGY =  192 NGZ =   36
   dimension x,y,z NGXF=   192 NGYF=  384 NGZF=   72
   support grid    NGXF=   192 NGYF=  384 NGZF=   72
   ions per type =              80   4  32  24  16
   NGX,Y,Z   is equivalent  to a cutoff of  10.09, 10.11, 10.99 a.u.
   NGXF,Y,Z  is equivalent  to a cutoff of  20.19, 20.22, 21.97 a.u.

 SYSTEM =  flex_MOF                                
 POSCAR =   C Fe  H  N  O                          

 Startparameter for this run:
   NWRITE =      2    write-flag & timer
   PREC   = normal    normal or accurate (medium, high low for compatibility)
   ISTART =      0    job   : 0-new  1-cont  2-samecut
   ICHARG =      2    charge: 1-file 2-atom 10-const
   ISPIN  =      2    spin polarized calculation?
   LNONCOLLINEAR =      F non collinear calculations
   LSORBIT =      F    spin-orbit coupling
   INIWAV =      1    electr: 0-lowe 1-rand  2-diag
   LASPH  =      F    aspherical Exc in radial PAW
   METAGGA=      F    non-selfconsistent MetaGGA calc.

 Electronic Relaxation 1
   ENCUT  =  600.0 eV  44.10 Ry    6.64 a.u.  31.58 63.04 10.88*2*pi/ulx,y,z
   ENINI  =  600.0     initial cutoff
   ENAUG  =  644.9 eV  augmentation charge cutoff
   NELM   =     80;   NELMIN=  3; NELMDL= -8     # of ELM steps 
   EDIFF  = 0.1E-05   stopping-criterion for ELM
   LREAL  =      T    real-space projection
   NLSPLINE    = F    spline interpolate recip. space projectors
   LCOMPAT=      F    compatible to vasp.4.4
   GGA_COMPAT  = T    GGA compatible to vasp.4.4-vasp.4.6
   LMAXPAW     = -100 max onsite density
   LMAXMIX     =    2 max onsite mixed and CHGCAR
   VOSKOWN=      0    Vosko Wilk Nusair interpolation
   ROPT   =   -0.00050  -0.00050  -0.00050  -0.00050
   ROPT   =   -0.00050
 Ionic relaxation
   EDIFFG = -.1E-01   stopping-criterion for IOM
   NSW    =   1000    number of steps for IOM
   NBLOCK =      1;   KBLOCK =   1000    inner block; outer block 
   IBRION =      2    ionic relax: 0-MD 1-quasi-New 2-CG
   NFREE  =      1    steps in history (QN), initial steepest desc. (CG)
   ISIF   =      4    stress and relaxation
   IWAVPR =     11    prediction:  0-non 1-charg 2-wave 3-comb
   ISYM   =      0    0-nonsym 1-usesym 2-fastsym
   LCORR  =      T    Harris-Foulkes like correction to forces

   POTIM  = 0.5000    time-step for ionic-motion
   TEIN   =    0.0    initial temperature
   TEBEG  =    0.0;   TEEND  =   0.0 temperature during run
   SMASS  =  -3.00    Nose mass-parameter (am)
   estimated Nose-frequenzy (Omega)   =  0.10E-29 period in steps = 0.13E+47 mass=  -0.571E-26a.u.
   SCALEE = 1.0000    scale energy and forces
   NPACO  =    256;   APACO  = 16.0  distance and # of slots for P.C.
   PSTRESS=    0.0 pullay stress

  Mass of Ions in am
   POMASS =  12.01 55.85  1.00 14.00 16.00
  Ionic Valenz
   ZVAL   =   4.00  8.00  1.00  5.00  6.00
  Atomic Wigner-Seitz radii
   RWIGS  =  -1.00 -1.00 -1.00 -1.00 -1.00
  virtual crystal weights 
   VCA    =   1.00  1.00  1.00  1.00  1.00
   NELECT =     600.0000    total number of electrons
   NUPDOWN=      -1.0000    fix difference up-down

 DOS related values:
   EMIN   =  10.00;   EMAX   =-10.00  energy-range for DOS
   EFERMI =   0.00
   ISMEAR =     0;   SIGMA  =   0.05  broadening in eV -4-tet -1-fermi 0-gaus

 Electronic relaxation 2 (details)
   IALGO  =     38    algorithm
   LDIAG  =      T    sub-space diagonalisation (order eigenvalues)
   LSUBROT=      F    optimize rotation matrix (better conditioning)
   TURBO    =      0    0=normal 1=particle mesh
   IRESTART =      0    0=no restart 2=restart with 2 vectors
   NREBOOT  =      0    no. of reboots
   NMIN     =      0    reboot dimension
   EREF     =   0.00    reference energy to select bands
   IMIX   =      4    mixing-type and parameters
     AMIX     =   0.40;   BMIX     =  1.00
     AMIX_MAG =   1.60;   BMIX_MAG =  1.00
     AMIN     =   0.10
     WC   =   100.;   INIMIX=   1;  MIXPRE=   1;  MAXMIX= -45

 Intra band minimization:
   WEIMIN = 0.0010     energy-eigenvalue tresh-hold
   EBREAK =  0.52E-09  absolut break condition
   DEPER  =   0.30     relativ break condition  

   TIME   =   0.40     timestep for ELM

  volume/ion in A,a.u.               =      17.29       116.71
  Fermi-wavevector in a.u.,A,eV,Ry     =   0.991853  1.874331 13.385040  0.983773
  Thomas-Fermi vector in A             =   2.123624
 
 Write flags
   LWAVE        =      T    write WAVECAR
   LDOWNSAMPLE  =      F    k-point downsampling of WAVECAR
   LCHARG       =      T    write CHGCAR
   LVTOT        =      F    write LOCPOT, total local potential
   LVHAR        =      F    write LOCPOT, Hartree potential only
   LELF         =      F    write electronic localiz. function (ELF)
   LORBIT       =     11    0 simple, 1 ext, 2 COOP (PROOUT), +10 PAW based schemes


 Dipole corrections
   LMONO  =      F    monopole corrections only (constant potential shift)
   LDIPOL =      F    correct potential (dipole corrections)
   IDIPOL =      0    1-x, 2-y, 3-z, 4-all directions 
   EPSILON=  1.0000000 bulk dielectric constant

 Exchange correlation treatment:
   GGA     =    PE    GGA type
   LEXCH   =     8    internal setting for exchange type
   VOSKOWN=      0    Vosko Wilk Nusair interpolation
   LHFCALC =     F    Hartree Fock is set to
   LHFONE  =     F    Hartree Fock one center treatment
   AEXX    =    0.0000 exact exchange contribution

 Linear response parameters
   LEPSILON=     F    determine dielectric tensor
   LRPA    =     F    only Hartree local field effects (RPA)
   LNABLA  =     F    use nabla operator in PAW spheres
   LVEL    =     F    velocity operator in full k-point grid
   LINTERFAST=   F  fast interpolation
   KINTER  =     0    interpolate to denser k-point grid
   CSHIFT  =0.1000    complex shift for real part using Kramers Kronig
   OMEGAMAX=  -1.0    maximum frequency
   DEG_THRESHOLD= 0.2000000E-02 threshold for treating states as degnerate
   RTIME   =   -0.100 relaxation time in fs
  (WPLASMAI=    0.000 imaginary part of plasma frequency in eV, 0.658/RTIME)
   DFIELD  = 0.0000000 0.0000000 0.0000000 field for delta impulse in time
 
 Orbital magnetization related:
   ORBITALMAG=     F  switch on orbital magnetization
   LCHIMAG   =     F  perturbation theory with respect to B field
   DQ        =  0.001000  dq finite difference perturbation B field
   LLRAUG    =     F  two centre corrections for induced B field



--------------------------------------------------------------------------------------------------------


 conjugate gradient relaxation of ions
 charge density and potential will be updated during run
 spin polarized calculation
 Variant of blocked Davidson
 Davidson routine will perform the subspace rotation
 perform sub-space diagonalisation
    after iterative eigenvector-optimisation
 modified Broyden-mixing scheme, WC =      100.0
 initial mixing is a Kerker type mixing with AMIX =  0.4000 and BMIX =      1.0000
 Hartree-type preconditioning will be used
 using additional bands          180
 real space projection scheme for non local part
 use partial core corrections
 calculate Harris-corrections to forces 
   (improved forces if not selfconsistent)
 use gradient corrections 
 use of overlap-Matrix (Vanderbilt PP)
 Gauss-broadening in eV      SIGMA  =   0.05


--------------------------------------------------------------------------------------------------------


  energy-cutoff  :      600.00
  volume of cell :     2697.95
      direct lattice vectors                 reciprocal lattice vectors
    15.810742254 -0.003244316  0.022456214     0.063248226  0.000012580 -0.000060328
    -0.004615609 31.516583233  1.733221772     0.000009646  0.031849784 -0.002190329
     0.005109614  0.373757105  5.434860785    -0.000264411 -0.010157210  0.184696116

  length of vectors
    15.810758534 31.564205957  5.447699719     0.063248256  0.031925012  0.184975388


 
 k-points in units of 2pi/SCALE and weight: read from INCAR                         
   0.00000000  0.00000000  0.00000000       0.125
   0.03162411  0.00000629 -0.00003016       0.125
  -0.00006610 -0.00253930  0.04617403       0.250
   0.03155801 -0.00253301  0.04614386       0.250
  -0.00013221 -0.00507860  0.09234806       0.125
   0.03149191 -0.00507231  0.09231789       0.125
 
 k-points in reciprocal lattice and weights: read from INCAR                         
   0.00000000  0.00000000  0.00000000       0.125
   0.50000000  0.00000000 -0.00000000       0.125
  -0.00000000 -0.00000000  0.25000000       0.250
   0.50000000 -0.00000000  0.25000000       0.250
  -0.00000000 -0.00000000  0.50000000       0.125
   0.50000000  0.00000000  0.50000000       0.125
 
 position of ions in fractional coordinates (direct lattice) 
   0.85320052  0.96580339  0.10329184
   0.92614670  0.97655409  0.44181501
   0.84900377  0.81739370  0.89811915
   0.64539691  0.46475396  0.61109524
   0.57702014  0.30562973  0.06826885
   0.07253739  0.80459174  0.05898798
   0.57287996  0.47604766  0.95041740
   0.64942053  0.31789593  0.40504729
   0.42199336  0.47529148  0.45139885
   0.14525379  0.81608671  0.39663690
   0.07758807  0.97503609  0.94090125
   0.42617943  0.30423335  0.56982229
   0.92133247  0.80561039  0.55943538
   0.14998242  0.96273203  0.60323969
   0.35327295  0.31501288  0.90935558
   0.34980376  0.46363312  0.11315451
   0.77607803  0.04439970  0.45102654
   0.86305292  0.06866227  0.07227232
   0.85643696  0.71457507  0.93451196
   0.63672231  0.56752057  0.57469121
   0.64359529  0.21504023  0.44223228
   0.22402232  0.73704437  0.05534272
   0.72379413  0.54377147  0.95273588
   0.73022242  0.23928340  0.06265480
   0.27064086  0.54265697  0.45540980
   0.13710721  0.71337222  0.43509298
   0.14471624  0.06564154  0.56727417
   0.36309120  0.21203599  0.93991515
   0.76956015  0.73838615  0.55620430
   0.23120255  0.04123510  0.94554918
   0.27620236  0.23643747  0.56246870
   0.35778334  0.56642318  0.07624970
   0.74219582  0.08819187  0.44324077
   0.82977867  0.11237936  0.07699326
   0.82289157  0.67085434  0.93253392
   0.67038662  0.61125889  0.57613587
   0.67758005  0.17143437  0.43906426
   0.25872134  0.69333449  0.06741950
   0.75816252  0.58754149  0.94140829
   0.76501677  0.19562233  0.07246552
   0.23619137  0.58640481  0.44414447
   0.17100271  0.66968387  0.43412103
   0.17843867  0.10928203  0.57149905
   0.33004780  0.16827935  0.93420779
   0.73521350  0.69460661  0.56713030
   0.26579475  0.08494368  0.93666474
   0.24254876  0.19260352  0.56932380
   0.32400280  0.61010631  0.07761243
   0.68275788  0.09722659  0.61866488
   0.85703686  0.14521522  0.90018122
   0.85021164  0.63822714  0.11012267
   0.64324640  0.64388044  0.39821657
   0.65056375  0.13864257  0.61651422
   0.31863860  0.68408279  0.89384257
   0.81795222  0.59677927  0.11462138
   0.82473765  0.18661437  0.89776874
   0.17639390  0.59569253  0.61797872
   0.14393601  0.63711440  0.61292641
   0.15129212  0.14216509  0.39534218
   0.35736394  0.13535043  0.10984720
   0.67557733  0.68532663  0.39358443
   0.32533973  0.09390217  0.11122330
   0.18322897  0.18361721  0.39421331
   0.35121115  0.64268770  0.89911041
   0.86830916  0.99556775  0.26844947
   0.86286621  0.78729882  0.73402252
   0.63082576  0.49473500  0.77534324
   0.63599550  0.28769933  0.24154089
   0.13069940  0.78603441  0.23296754
   0.36384642  0.49370589  0.27709106
   0.13676576  0.99291525  0.76714310
   0.36844346  0.28520267  0.74433961
   0.77009086  0.12083901  0.25917158
   0.76306575  0.66217124  0.75202243
   0.73022495  0.61997175  0.75658536
   0.73728935  0.16299504  0.25690169
   0.23094483  0.66095673  0.25325291
   0.26402060  0.61879546  0.25845387
   0.23799729  0.11767172  0.75340993
   0.27053820  0.15986789  0.75219589
   0.97002765  0.89069350  0.99978732
   0.02721759  0.89034072  0.49971949
   0.52727730  0.39044961  0.50967368
   0.47010236  0.39011716  0.01055031
   0.40336285  0.14278008  0.24705801
   0.83847507  0.57104921  0.25363866
   0.84511928  0.21247738  0.75906875
   0.66230596  0.07135457  0.75723358
   0.65517348  0.71102255  0.25419338
   0.59709307  0.63622184  0.26200887
   0.09766227  0.64478358  0.74935991
   0.10529868  0.13472513  0.25812879
   0.89644425  0.64590054  0.24605393
   0.16267459  0.20956015  0.25656473
   0.15596105  0.57002337  0.75788493
   0.33903644  0.70975415  0.75391278
   0.39756838  0.63500900  0.76292837
   0.60446800  0.14613186  0.75390807
   0.90320203  0.13775875  0.76294237
   0.34583296  0.06797890  0.24907594
   0.54477239  0.48907316  0.10688816
   0.45463388  0.29143698  0.41312999
   0.31051130  0.46595142  0.94862878
   0.18467356  0.81368785  0.56087738
   0.04999118  0.98845312  0.09678739
   0.31387528  0.31225952  0.07430560
   0.81372718  0.96857131  0.93903490
   0.94918168  0.79239110  0.40325740
   0.18963161  0.96467097  0.43899566
   0.68469460  0.46725633  0.44604178
   0.54933548  0.29221196  0.91281887
   0.95457170  0.98931291  0.59832353
   0.68900858  0.31591272  0.56882447
   0.44983149  0.48847549  0.60735852
   0.04437659  0.79148924  0.90317536
   0.80959360  0.81513668  0.06292552
   0.89961355  0.93063149  0.17591406
   0.94434935  0.93730962  0.38348140
   0.89671749  0.85209591  0.82378892
   0.59858806  0.42976295  0.68578664
   0.55660081  0.34470336  0.12513474
   0.05365758  0.84386882  0.11569514
   0.55407472  0.43677517  0.89369997
   0.60103454  0.35232146  0.33153511
   0.44142601  0.43608760  0.39465633
   0.09829008  0.85099154  0.32262466
   0.05682755  0.93601997  0.88394658
   0.44426468  0.34353384  0.62734610
   0.94108537  0.84477462  0.61607523
   0.10123933  0.92838669  0.67695942
   0.39954034  0.35023606  0.83548092
   0.39713836  0.42884274  0.18723951
   0.83395147  0.03731646  0.26203243
   0.82757619  0.74568551  0.74367146
   0.66558173  0.53645492  0.76582535
   0.67200485  0.24627389  0.25090842
   0.16567412  0.74436569  0.24263412
   0.32876580  0.53534211  0.26755990
   0.17300162  0.03431836  0.75782989
   0.33405253  0.24344725  0.75095211
   0.75524653  0.01519345  0.61047784
   0.91307853  0.05945805  0.91389479
   0.90662516  0.72394974  0.09141515
   0.58648603  0.55810743  0.41801516
   0.59331410  0.22419870  0.60007557
   0.24445546  0.76594296  0.89352824
   0.74435879  0.51480388  0.11360787
   0.75035954  0.26839670  0.90180835
   0.25017606  0.51372255  0.61698107
   0.08690702  0.72280835  0.59242950
   0.09472425  0.05652543  0.40920392
   0.41287622  0.22119729  0.09841794
   0.74912312  0.76736363  0.39527197
   0.25138532  0.01203324  0.10544799
   0.25526534  0.26573166  0.40408811
   0.40818609  0.55703422  0.91932047
 
 position of ions in cartesian coordinates  (Angst):
  13.48580353 30.47466101  2.25448790
  14.64081685 30.93977494  4.11458560
  13.42419613 26.09438048  6.31694252
  10.20518158 14.87376430  4.14123243
   9.12205480  9.65604871  0.91371351
   1.14345768 25.37979433  1.71675630
   9.06031639 15.35676245  6.00334715
  10.26842298 10.16827606  2.76694332
   6.67214101 15.14690784  3.28655184
   2.29483024 25.86803929  3.57338745
   1.22703225 31.08122301  6.80536345
   6.73972046  9.79998826  3.63377905
  14.56609027 25.59619090  4.45744452
   2.36997203 30.56700269  4.95051990
   5.58869997 10.26686159  5.49614134
   5.52909538 14.65328928  1.42641329
  12.27246932  1.56538352  2.54564878
  13.64555965  2.18821238  0.53117784
  13.54238079 22.86746654  6.33669182
  10.06736935 18.09903859  4.12130411
  10.17698639  6.94053276  2.79063599
   3.53884009 23.24907829  1.58327204
  11.44608075 17.49156242  6.13671710
  11.54457425  7.56244364  0.77164933
   4.27885520 17.27202830  3.42171133
   2.16669726 22.64522908  3.60418094
   2.29066676  2.28035026  3.20007727
   5.74456523  7.03277191  5.48396706
  12.16675104 23.47679709  4.31996129
   3.66012498  1.65224506  5.21558964
   4.36874701  7.66103174  3.47294013
   5.65459534 17.87906147  1.40417796
  11.73652461  2.94276296  2.57847488
  13.11929139  3.56789824  0.63185967
  13.01219504 21.48890820  6.24941042
  10.59943263 19.47795161  4.20571981
  10.71449573  5.56493062  2.69860278
   4.08772075 21.87589342  1.57392795
  11.98921056 18.86669855  6.15178815
  12.09495037  6.18994996  0.75007628
   3.73392374 18.64671177  3.43553688
   2.70280697 21.26784835  3.52393809
   2.82366349  3.65721913  3.29943480
   5.22229740  5.65168624  5.37636635
  11.62396297 22.10121061  4.30269161
   4.20680620  3.02635748  5.24383745
   3.83689600  6.28220683  3.43346693
   5.12030529 19.25642341  1.48653818
  10.79762116  3.29326537  3.54620489
  13.55431826  4.91035606  5.16329560
  13.44009402 20.15313956  1.72378307
  10.16926585 20.43966087  3.29468411
  10.28840594  4.59785591  3.60557650
   5.03932249 21.89299838  6.05073253
  12.93026295 18.84863029  1.67567020
  13.04344040  6.21431895  5.22121271
   2.78932659 19.00459480  4.39505672
   2.27592624 20.30828756  4.43866250
   2.39340459  4.62782898  2.39843077
   5.65012573  4.30568000  0.83962161
  10.68022693 21.74406704  3.34207054
   5.14399744  2.99999042  0.77454234
   2.89815281  5.93373271  2.46485843
   5.55453670 20.59022994  6.00834709
  13.72538889 31.47441181  3.20402414
  13.64267202 25.08451554  5.37325037
   9.97550165 15.88010016  5.08553397
  10.05546721  9.15551424  1.82566991
   2.06401685 24.85976818  2.63145313
   5.75181905 15.66230719  2.36982373
   2.16170514 31.57957749  5.89332954
   5.82785151  9.26562056  4.54797549
  12.17647458  3.90280138  1.63529555
  12.06542212 21.14797324  5.25196241
  11.54640278 19.81980147  5.20288274
  11.65765220  5.23067368  1.69528818
   3.64965242 20.92500365  2.52716505
   4.17282610 19.59806113  2.48309950
   3.76622032  3.98943060  4.30397378
   4.28051522  5.31875059  4.37124170
  15.33785465 28.44214648  6.99925739
   0.42877413 28.24718295  4.25967501
   8.33744748 12.49442118  3.45858192
   7.43092060 12.29757796  0.74405573
   6.37806945  4.59097134  1.59925345
  13.25557355 18.08959907  2.38707471
  13.36486092  6.97752646  4.51268156
  10.47508866  2.52972489  4.25400529
  10.35679604 22.50188243  2.62857811
   9.43888688 20.14752897  2.54010370
   1.54496583 20.60113721  5.19241288
   1.66554741  4.34221176  1.63876718
  14.17172506 20.44563431  2.47688846
   2.57234970  6.69998500  1.76126088
   2.46710145 18.24794802  5.11047831
   5.36099408 22.64970616  5.33518582
   6.28681849 20.29717394  5.25594876
   9.56026550  4.88539445  4.36423842
  14.28355704  4.62391002  4.40553456
   5.46883464  2.23443445  1.47928165
   8.61154462 15.45209772  1.44082803
   7.18886481  9.33803312  2.76063827
   4.91211058 15.03874611  5.97023539
   2.91893626 25.85369377  4.46273903
   0.78632990 31.18867779  2.24035706
   4.96153959  9.86810719  0.95210406
  12.86595825 30.87438940  6.80054609
  15.00566995 25.12110101  3.58635236
   2.99600712 30.56659552  4.06212746
  10.82565227 14.89081282  3.24940949
   8.68871711  9.54891282  5.47984763
  15.09097796 31.40029328  4.98793983
  10.89518548 10.16685641  3.65450113
   7.11301851 15.62062352  4.15764684
   0.70258847 25.28246077  6.28145524
  12.79683489 25.71121541  1.77298452
  14.22016131 29.39315532  2.58926110
  14.92849733 29.68106177  3.72993997
  14.17804547 27.16013953  5.97418618
   9.46564200 13.79903528  4.48547141
   8.79932037 10.90883642  1.29003639
   0.84506229 26.63892963  2.09260374
   8.76288314 14.09789026  5.62660561
   9.50287003 11.22593222  2.42599534
   6.97927659 13.89006466  2.91065147
   1.55175977 26.94060998  3.23058439
   0.89868210 29.83034827  6.42773291
   7.02577420 11.06004657  4.01493553
  14.87850700 26.85161890  4.83359807
   1.59984282 29.51226618  5.29055365
   6.31968177 11.34921473  5.15673143
   6.27802967 13.58435149  1.76981845
  13.18655833  1.27131809  1.50751489
  13.08495199 23.77672705  5.35277346
  10.52477815 17.19129951  5.10689597
  10.62504079  7.85331018  1.80559027
   2.61723491 23.55001182  2.61255391
   5.19692756 16.97108988  2.38940023
   2.73899788  1.36428060  4.18206624
   5.28433183  7.95221531  4.51076978
  11.94405735  0.70456586  3.36115567
  14.44084444  2.21252689  5.09044921
  14.33154241 22.84764777  1.77195344
   9.27233942 17.74397268  3.25234840
   9.38276764  7.28833459  3.66323683
   3.86605256 24.47307461  6.18924014
  11.76706931 16.26490609  1.52642771
  11.86711037  8.79356990  5.38324407
   3.95625063 16.42056902  4.24921936
   1.37375531 23.00159236  4.47451062
   1.49949072  1.93412391  2.32406460
   6.52736135  7.00682761  0.92754339
  11.84267036 24.32998510  3.49508195
   3.97507169  0.41784298  0.59959656
   4.03677270  8.52515672  2.66246680
   6.45585131 17.89809367  5.97100892
 


--------------------------------------------------------------------------------------------------------


 k-point  1 :   0.0000 0.0000 0.0000  plane waves:   90005
 k-point  2 :   0.5000 0.0000-0.0000  plane waves:   89862
 k-point  3 :  -0.0000-0.0000 0.2500  plane waves:   90045
 k-point  4 :   0.5000-0.0000 0.2500  plane waves:   90034
 k-point  5 :  -0.0000-0.0000 0.5000  plane waves:   90100
 k-point  6 :   0.5000 0.0000 0.5000  plane waves:   90084

 maximum and minimum number of plane-waves per node :     22674    22384

 maximum number of plane-waves:     90100
 maximum index in each direction: 
   IXMAX=   31   IYMAX=   63   IZMAX=   10
   IXMIN=  -32   IYMIN=  -63   IZMIN=  -11


 real space projection operators:
  total allocation   :      12614.20 KBytes
  max/ min on nodes  :       3174.36       3141.73


 parallel 3D FFT for wavefunctions:
    minimum data exchange during FFTs selected (reduces bandwidth)
 parallel 3D FFT for charge:
    minimum data exchange during FFTs selected (reduces bandwidth)


 total amount of memory used by VASP MPI-rank0   130649. kBytes
=======================================================================

   base      :      30000. kBytes
   nonlr-proj:       6957. kBytes
   fftplans  :       6912. kBytes
   grid      :      19304. kBytes
   one-center:       1213. kBytes
   wavefun   :      66263. kBytes
 
     INWAV:  cpu time    0.0001: real time    0.0005
 Broyden mixing: mesh for mixing (old mesh)
   NGX = 63   NGY =127   NGZ = 21
  (NGX  =192   NGY  =384   NGZ  = 72)
  gives a total of 168021 points

 initial charge density was supplied:
 charge density of overlapping atoms calculated
 number of electron     600.0000000 magnetization     156.0000000
 keeping initial charge density in first step


--------------------------------------------------------------------------------------------------------


 Maximum index for non-local projection operator          626
 Maximum index for augmentation-charges          431 (set IRDMAX)


--------------------------------------------------------------------------------------------------------


 First call to EWALD:  gamma=   0.127
 Maximum number of real-space cells 2x 1x 6
 Maximum number of reciprocal cells 3x 6x 1

    FEWALD:  cpu time    0.0172: real time    0.0173


--------------------------------------- Iteration      1(   1)  ---------------------------------------


    POTLOK:  cpu time    0.3167: real time    0.3495
    SETDIJ:  cpu time    0.0675: real time    0.0680
     EDDAV:  cpu time   32.0446: real time   32.2373
       DOS:  cpu time    0.0061: real time    0.0075
    --------------------------------------------
      LOOP:  cpu time   32.4349: real time   32.6624

 eigenvalue-minimisations  : 11520
 total energy-change (2. order) : 0.4570361E+04  (-0.2856186E+05)
 number of electron     600.0000000 magnetization     156.0000000
 augmentation part      600.0000000 magnetization     156.0000000

 Free energy of the ion-electron system (eV)
  ---------------------------------------------------
  alpha Z        PSCENC =       656.98513878
  Ewald energy   TEWEN  =     21273.57411696
  -Hartree energ DENC   =    -45438.14301559
  -exchange      EXHF   =         0.00000000
  -V(xc)+E(xc)   XCENC  =      2088.27974356
  PAW double counting   =     21405.43600568   -21538.50320066
  entropy T*S    EENTRO =        -0.03896662
  eigenvalues    EBANDS =     -1692.83334064
  atomic energy  EATOM  =     27815.60422923
  Solvation  Ediel_sol  =         0.00000000
  ---------------------------------------------------
  free energy    TOTEN  =      4570.36071070 eV

  energy without entropy =     4570.39967732  energy(sigma->0) =     4570.38019401


--------------------------------------------------------------------------------------------------------




--------------------------------------- Iteration      1(   2)  ---------------------------------------


     EDDAV:  cpu time   36.6112: real time   36.7323
       DOS:  cpu time    0.0051: real time    0.0051
    --------------------------------------------
      LOOP:  cpu time   36.6164: real time   36.7374

 eigenvalue-minimisations  : 13600
 total energy-change (2. order) :-0.5102793E+04  (-0.4749961E+04)
 number of electron     600.0000000 magnetization     156.0000000
 augmentation part      600.0000000 magnetization     156.0000000

 Free energy of the ion-electron system (eV)
  ---------------------------------------------------
  alpha Z        PSCENC =       656.98513878
  Ewald energy   TEWEN  =     21273.57411696
  -Hartree energ DENC   =    -45438.14301559
  -exchange      EXHF   =         0.00000000
  -V(xc)+E(xc)   XCENC  =      2088.27974356
  PAW double counting   =     21405.43600568   -21538.50320066
  entropy T*S    EENTRO =        -0.02586482
  eigenvalues    EBANDS =     -6795.63955957
  atomic energy  EATOM  =     27815.60422923
  Solvation  Ediel_sol  =         0.00000000
  ---------------------------------------------------
  free energy    TOTEN  =      -532.43240643 eV

  energy without entropy =     -532.40654161  energy(sigma->0) =     -532.41947402


--------------------------------------------------------------------------------------------------------




--------------------------------------- Iteration      1(   3)  ---------------------------------------


     EDDAV:  cpu time   39.4888: real time   39.5481
       DOS:  cpu time    0.0338: real time    0.0341
    --------------------------------------------
      LOOP:  cpu time   39.5226: real time   39.5822

 eigenvalue-minimisations  : 14592
 total energy-change (2. order) :-0.6475917E+03  (-0.6345514E+03)
 number of electron     600.0000000 magnetization     156.0000000
 augmentation part      600.0000000 magnetization     156.0000000

 Free energy of the ion-electron system (eV)
  ---------------------------------------------------
  alpha Z        PSCENC =       656.98513878
  Ewald energy   TEWEN  =     21273.57411696
  -Hartree energ DENC   =    -45438.14301559
  -exchange      EXHF   =         0.00000000
  -V(xc)+E(xc)   XCENC  =      2088.27974356
  PAW double counting   =     21405.43600568   -21538.50320066
  entropy T*S    EENTRO =        -0.03915085
  eigenvalues    EBANDS =     -7443.21797109
  atomic energy  EATOM  =     27815.60422923
  Solvation  Ediel_sol  =         0.00000000
  ---------------------------------------------------
  free energy    TOTEN  =     -1180.02410398 eV

  energy without entropy =    -1179.98495313  energy(sigma->0) =    -1180.00452855


--------------------------------------------------------------------------------------------------------




--------------------------------------- Iteration      1(   4)  ---------------------------------------


     EDDAV:  cpu time   43.0966: real time   43.2284
       DOS:  cpu time    0.0050: real time    0.0050
    --------------------------------------------
      LOOP:  cpu time   43.1016: real time   43.2334

 eigenvalue-minimisations  : 15872
 total energy-change (2. order) :-0.2250550E+02  (-0.2232418E+02)
 number of electron     600.0000000 magnetization     156.0000000
 augmentation part      600.0000000 magnetization     156.0000000

 Free energy of the ion-electron system (eV)
  ---------------------------------------------------
  alpha Z        PSCENC =       656.98513878
  Ewald energy   TEWEN  =     21273.57411696
  -Hartree energ DENC   =    -45438.14301559
  -exchange      EXHF   =         0.00000000
  -V(xc)+E(xc)   XCENC  =      2088.27974356
  PAW double counting   =     21405.43600568   -21538.50320066
  entropy T*S    EENTRO =        -0.04049589
  eigenvalues    EBANDS =     -7465.72213008
  atomic energy  EATOM  =     27815.60422923
  Solvation  Ediel_sol  =         0.00000000
  ---------------------------------------------------
  free energy    TOTEN  =     -1202.52960802 eV

  energy without entropy =    -1202.48911212  energy(sigma->0) =    -1202.50936007


--------------------------------------------------------------------------------------------------------




--------------------------------------- Iteration      1(   5)  ---------------------------------------


     EDDAV:  cpu time   45.5248: real time   45.6653
       DOS:  cpu time    0.0052: real time    0.0052
    --------------------------------------------
      LOOP:  cpu time   45.5300: real time   45.6705

 eigenvalue-minimisations  : 16480
 total energy-change (2. order) :-0.6723341E+00  (-0.6704492E+00)
 number of electron     600.0000000 magnetization     156.0000000
 augmentation part      600.0000000 magnetization     156.0000000

 Free energy of the ion-electron system (eV)
  ---------------------------------------------------
  alpha Z        PSCENC =       656.98513878
  Ewald energy   TEWEN  =     21273.57411696
  -Hartree energ DENC   =    -45438.14301559
  -exchange      EXHF   =         0.00000000
  -V(xc)+E(xc)   XCENC  =      2088.27974356
  PAW double counting   =     21405.43600568   -21538.50320066
  entropy T*S    EENTRO =        -0.04048384
  eigenvalues    EBANDS =     -7466.39447621
  atomic energy  EATOM  =     27815.60422923
  Solvation  Ediel_sol  =         0.00000000
  ---------------------------------------------------
  free energy    TOTEN  =     -1203.20194210 eV

  energy without entropy =    -1203.16145826  energy(sigma->0) =    -1203.18170018


--------------------------------------------------------------------------------------------------------




--------------------------------------- Iteration      1(   6)  ---------------------------------------


     EDDAV:  cpu time   47.4546: real time   47.5432
       DOS:  cpu time    0.0052: real time    0.0052
    --------------------------------------------
      LOOP:  cpu time   47.4599: real time   47.5484

 eigenvalue-minimisations  : 17376
 total energy-change (2. order) :-0.3177787E-01  (-0.3176300E-01)
 number of electron     600.0000000 magnetization     156.0000000
 augmentation part      600.0000000 magnetization     156.0000000

 Free energy of the ion-electron system (eV)
  ---------------------------------------------------
  alpha Z        PSCENC =       656.98513878
  Ewald energy   TEWEN  =     21273.57411696
  -Hartree energ DENC   =    -45438.14301559
  -exchange      EXHF   =         0.00000000
  -V(xc)+E(xc)   XCENC  =      2088.27974356
  PAW double counting   =     21405.43600568   -21538.50320066
  entropy T*S    EENTRO =        -0.04048079
  eigenvalues    EBANDS =     -7466.42625714
  atomic energy  EATOM  =     27815.60422923
  Solvation  Ediel_sol  =         0.00000000
  ---------------------------------------------------
  free energy    TOTEN  =     -1203.23371997 eV

  energy without entropy =    -1203.19323918  energy(sigma->0) =    -1203.21347957


--------------------------------------------------------------------------------------------------------




--------------------------------------- Iteration      1(   7)  ---------------------------------------


     EDDAV:  cpu time   44.7261: real time   44.7815
       DOS:  cpu time    0.0048: real time    0.0048
    --------------------------------------------
      LOOP:  cpu time   44.7309: real time   44.7863

 eigenvalue-minimisations  : 16736
 total energy-change (2. order) :-0.5779555E-03  (-0.5777078E-03)
 number of electron     600.0000000 magnetization     156.0000000
 augmentation part      600.0000000 magnetization     156.0000000

 Free energy of the ion-electron system (eV)
  ---------------------------------------------------
  alpha Z        PSCENC =       656.98513878
  Ewald energy   TEWEN  =     21273.57411696
  -Hartree energ DENC   =    -45438.14301559
  -exchange      EXHF   =         0.00000000
  -V(xc)+E(xc)   XCENC  =      2088.27974356
  PAW double counting   =     21405.43600568   -21538.50320066
  entropy T*S    EENTRO =        -0.04048018
  eigenvalues    EBANDS =     -7466.42683570
  atomic energy  EATOM  =     27815.60422923
  Solvation  Ediel_sol  =         0.00000000
  ---------------------------------------------------
  free energy    TOTEN  =     -1203.23429792 eV

  energy without entropy =    -1203.19381774  energy(sigma->0) =    -1203.21405783


--------------------------------------------------------------------------------------------------------




--------------------------------------- Iteration      1(   8)  ---------------------------------------


     EDDAV:  cpu time   44.9830: real time   45.0793
       DOS:  cpu time    0.0054: real time    0.0054
    CHARGE:  cpu time    1.1110: real time    1.1177
    MIXING:  cpu time    0.0131: real time    0.0156
    --------------------------------------------
      LOOP:  cpu time   46.1125: real time   46.2179

 eigenvalue-minimisations  : 17184
 total energy-change (2. order) :-0.1582188E-04  (-0.1581595E-04)
 number of electron     599.9999879 magnetization     147.3356151
 augmentation part       30.4984205 magnetization     133.9880317

 Broyden mixing:
  rms(total) = 0.11594E+02    rms(broyden)= 0.11593E+02
  rms(prec ) = 0.12296E+02
  weight for this iteration     100.00

 Free energy of the ion-electron system (eV)
  ---------------------------------------------------
  alpha Z        PSCENC =       656.98513878
  Ewald energy   TEWEN  =     21273.57411696
  -Hartree energ DENC   =    -45438.14301559
  -exchange      EXHF   =         0.00000000
  -V(xc)+E(xc)   XCENC  =      2088.27974356
  PAW double counting   =     21405.43600568   -21538.50320066
  entropy T*S    EENTRO =        -0.04048012
  eigenvalues    EBANDS =     -7466.42685158
  atomic energy  EATOM  =     27815.60422923
  Solvation  Ediel_sol  =         0.00000000
  ---------------------------------------------------
  free energy    TOTEN  =     -1203.23431374 eV

  energy without entropy =    -1203.19383363  energy(sigma->0) =    -1203.21407368


--------------------------------------------------------------------------------------------------------




--------------------------------------- Iteration      1(   9)  ---------------------------------------


    POTLOK:  cpu time    0.2575: real time    0.2890
    SETDIJ:  cpu time    0.0611: real time    0.0611
     EDDAV:  cpu time   44.4113: real time   44.4663
       DOS:  cpu time    0.0063: real time    0.0084
[...]
     10.82565     14.89081      3.24941         0.004558     -0.001112     -0.003738
      8.68872      9.54891      5.47985         0.002302     -0.000132      0.000713
     15.09098     31.40029      4.98794         0.000320      0.001982      0.003868
     10.89519     10.16686      3.65450         0.001149     -0.001310      0.004593
      7.11302     15.62062      4.15765         0.001876      0.002926      0.006283
      0.70259     25.28246      6.28146         0.002845      0.000551      0.001911
     12.79683     25.71122      1.77298         0.001574      0.001892     -0.000622
     14.22016     29.39316      2.58926         0.000859     -0.003871      0.000525
     14.92850     29.68106      3.72994        -0.000762     -0.001905      0.000070
     14.17805     27.16014      5.97419         0.001046     -0.000347     -0.000483
      9.46564     13.79904      4.48547         0.000616     -0.000611     -0.004410
      8.79932     10.90884      1.29004        -0.000364      0.001637     -0.002992
      0.84506     26.63893      2.09260         0.001761      0.001835     -0.000941
      8.76288     14.09789      5.62661         0.000626     -0.002438      0.000707
      9.50287     11.22593      2.42600        -0.003833     -0.003980      0.002542
      6.97928     13.89006      2.91065        -0.001539      0.001940      0.000689
      1.55176     26.94061      3.23058         0.001728      0.000990      0.002258
      0.89868     29.83035      6.42773         0.000894     -0.001708      0.001427
      7.02577     11.06005      4.01494        -0.001050      0.003091     -0.002098
     14.87851     26.85162      4.83360         0.000085      0.000341     -0.001268
      1.59984     29.51227      5.29055        -0.000975     -0.000256     -0.002406
      6.31968     11.34921      5.15673         0.001143      0.000702     -0.001914
      6.27803     13.58435      1.76982        -0.000824     -0.000390      0.002117
     13.18656      1.27132      1.50751         0.001830     -0.000213      0.001444
     13.08495     23.77673      5.35277         0.000782      0.001707     -0.000652
     10.52478     17.19130      5.10690         0.005749      0.002982     -0.000305
     10.62504      7.85331      1.80559         0.002165     -0.000143     -0.002104
      2.61723     23.55001      2.61255         0.001142      0.000485      0.000822
      5.19693     16.97109      2.38940         0.001113     -0.000505      0.002918
      2.73900      1.36428      4.18207         0.000464      0.000788      0.001608
      5.28433      7.95222      4.51077         0.002692     -0.003050     -0.000773
     11.94406      0.70457      3.36116        -0.000958     -0.001761      0.002690
     14.44084      2.21253      5.09045        -0.000409     -0.001114      0.000728
     14.33154     22.84765      1.77195         0.002423      0.000857     -0.001494
      9.27234     17.74397      3.25235        -0.002210      0.000824      0.003377
      9.38277      7.28833      3.66324         0.001020      0.001050     -0.000367
      3.86605     24.47307      6.18924        -0.003378     -0.001611      0.001608
     11.76707     16.26491      1.52643         0.000938      0.000410      0.000820
     11.86711      8.79357      5.38324         0.001919     -0.000499     -0.000564
      3.95625     16.42057      4.24922         0.000584      0.001161      0.003021
      1.37376     23.00159      4.47451        -0.003799     -0.002261     -0.005267
      1.49949      1.93412      2.32406        -0.000669     -0.001202      0.000686
      6.52736      7.00683      0.92754         0.001139      0.002524     -0.004519
     11.84267     24.32999      3.49508        -0.001608      0.000318     -0.002559
      3.97507      0.41784      0.59960         0.001379      0.002315     -0.002058
      4.03677      8.52516      2.66247        -0.001625     -0.000616     -0.004447
      6.45585     17.89809      5.97101        -0.000064      0.000138      0.000914
 -----------------------------------------------------------------------------------
    total drift:                               -0.072128      0.010490      0.009472


--------------------------------------------------------------------------------------------------------



  FREE ENERGIE OF THE ION-ELECTRON SYSTEM (eV)
  ---------------------------------------------------
  free  energy   TOTEN  =     -1186.29949246 eV

  energy  without entropy=    -1186.27628050  energy(sigma->0) =    -1186.28788648
 


--------------------------------------------------------------------------------------------------------


    POTLOK:  cpu time    0.3337: real time    0.3337


--------------------------------------------------------------------------------------------------------




--------------------------------------------------------------------------------------------------------


  
 reached required accuracy - stopping structural energy minimisation
 writing wavefunctions
     LOOP+:  cpu time 2562.1165: real time 2570.3299
    4ORBIT:  cpu time    0.0000: real time    0.0000
 


 total charge     
 
# of ion       s       p       d       tot
------------------------------------------
    1        0.870   1.768   0.000   2.638
    2        0.870   1.774   0.000   2.644
    3        0.869   1.768   0.000   2.637
    4        0.870   1.769   0.000   2.638
    5        0.870   1.774   0.000   2.644
    6        0.870   1.773   0.000   2.643
    7        0.870   1.773   0.000   2.644
    8        0.870   1.768   0.000   2.638
    9        0.870   1.774   0.000   2.644
   10        0.870   1.769   0.000   2.638
   11        0.870   1.774   0.000   2.644
   12        0.870   1.774   0.000   2.644
   13        0.870   1.774   0.000   2.644
   14        0.869   1.768   0.000   2.637
   15        0.870   1.768   0.000   2.637
   16        0.870   1.768   0.000   2.638
   17        0.864   1.718   0.000   2.582
   18        0.863   1.717   0.000   2.580
   19        0.864   1.717   0.000   2.581
   20        0.863   1.717   0.000   2.580
   21        0.864   1.717   0.000   2.581
   22        0.864   1.718   0.000   2.582
   23        0.864   1.718   0.000   2.582
   24        0.864   1.718   0.000   2.582
   25        0.864   1.718   0.000   2.582
   26        0.863   1.717   0.000   2.580
   27        0.864   1.717   0.000   2.581
   28        0.863   1.717   0.000   2.580
   29        0.864   1.718   0.000   2.582
   30        0.864   1.718   0.000   2.581
   31        0.864   1.718   0.000   2.582
   32        0.864   1.717   0.000   2.581
   33        0.866   1.786   0.000   2.651
   34        0.866   1.784   0.000   2.650
   35        0.866   1.784   0.000   2.650
   36        0.866   1.784   0.000   2.649
   37        0.866   1.784   0.000   2.650
   38        0.866   1.785   0.000   2.651
   39        0.866   1.786   0.000   2.651
   40        0.866   1.785   0.000   2.651
   41        0.866   1.785   0.000   2.651
   42        0.866   1.784   0.000   2.649
   43        0.866   1.784   0.000   2.650
   44        0.866   1.784   0.000   2.649
   45        0.866   1.785   0.000   2.651
   46        0.866   1.785   0.000   2.651
   47        0.866   1.786   0.000   2.651
   48        0.866   1.784   0.000   2.650
   49        0.870   1.767   0.000   2.637
   50        0.870   1.768   0.000   2.637
   51        0.870   1.768   0.000   2.638
   52        0.870   1.767   0.000   2.637
   53        0.870   1.767   0.000   2.637
   54        0.870   1.767   0.000   2.637
   55        0.870   1.767   0.000   2.637
   56        0.870   1.767   0.000   2.637
   57        0.870   1.767   0.000   2.637
   58        0.870   1.767   0.000   2.637
   59        0.870   1.768   0.000   2.637
   60        0.870   1.767   0.000   2.637
   61        0.870   1.767   0.000   2.637
   62        0.870   1.767   0.000   2.637
   63        0.870   1.767   0.000   2.637
   64        0.870   1.768   0.000   2.637
   65        0.849   1.791   0.000   2.640
   66        0.849   1.791   0.000   2.640
   67        0.849   1.792   0.000   2.640
   68        0.849   1.792   0.000   2.641
   69        0.849   1.791   0.000   2.640
   70        0.849   1.792   0.000   2.640
   71        0.849   1.791   0.000   2.640
   72        0.849   1.791   0.000   2.640
   73        0.865   1.791   0.000   2.656
   74        0.865   1.791   0.000   2.656
   75        0.865   1.791   0.000   2.656
   76        0.865   1.791   0.000   2.656
   77        0.865   1.791   0.000   2.656
   78        0.865   1.791   0.000   2.656
   79        0.865   1.790   0.000   2.656
   80        0.865   1.791   0.000   2.656
   81        0.389   0.490   6.042   6.922
   82        0.391   0.494   6.044   6.929
   83        0.391   0.495   6.044   6.929
   84        0.390   0.491   6.043   6.924
   85        0.638   0.048   0.000   0.686
   86        0.638   0.048   0.000   0.686
   87        0.638   0.048   0.000   0.686
   88        0.638   0.048   0.000   0.686
   89        0.638   0.048   0.000   0.686
   90        0.638   0.048   0.000   0.686
   91        0.638   0.048   0.000   0.686
   92        0.638   0.048   0.000   0.686
   93        0.638   0.048   0.000   0.686
   94        0.638   0.048   0.000   0.686
   95        0.638   0.048   0.000   0.686
   96        0.638   0.048   0.000   0.686
   97        0.638   0.048   0.000   0.686
   98        0.638   0.048   0.000   0.686
   99        0.638   0.048   0.000   0.686
  100        0.638   0.048   0.000   0.686
  101        0.632   0.050   0.000   0.682
  102        0.633   0.050   0.000   0.683
  103        0.629   0.050   0.000   0.679
  104        0.629   0.050   0.000   0.679
  105        0.632   0.050   0.000   0.682
  106        0.629   0.050   0.000   0.679
  107        0.629   0.050   0.000   0.679
  108        0.632   0.050   0.000   0.683
  109        0.629   0.050   0.000   0.679
  110        0.629   0.050   0.000   0.679
  111        0.632   0.050   0.000   0.682
  112        0.633   0.050   0.000   0.683
  113        0.629   0.050   0.000   0.679
  114        0.632   0.050   0.000   0.683
  115        0.632   0.050   0.000   0.682
  116        0.629   0.050   0.000   0.679
  117        1.242   2.604   0.000   3.845
  118        1.240   2.607   0.000   3.847
  119        1.242   2.603   0.000   3.845
  120        1.242   2.605   0.000   3.846
  121        1.240   2.607   0.000   3.847
  122        1.240   2.606   0.000   3.847
  123        1.240   2.607   0.000   3.847
  124        1.242   2.604   0.000   3.846
  125        1.240   2.607   0.000   3.847
  126        1.242   2.605   0.000   3.847
  127        1.240   2.607   0.000   3.847
  128        1.240   2.607   0.000   3.848
  129        1.240   2.607   0.000   3.847
  130        1.242   2.604   0.000   3.846
  131        1.242   2.604   0.000   3.846
  132        1.242   2.603   0.000   3.845
  133        1.211   2.731   0.000   3.942
  134        1.211   2.731   0.000   3.943
  135        1.211   2.731   0.000   3.943
  136        1.211   2.732   0.000   3.943
  137        1.211   2.731   0.000   3.942
  138        1.211   2.732   0.000   3.943
  139        1.211   2.731   0.000   3.943
  140        1.211   2.731   0.000   3.943
  141        1.584   3.541   0.000   5.125
  142        1.585   3.537   0.000   5.122
  143        1.585   3.537   0.000   5.122
  144        1.585   3.537   0.000   5.122
  145        1.585   3.537   0.000   5.122
  146        1.584   3.540   0.000   5.124
  147        1.584   3.540   0.000   5.125
  148        1.584   3.540   0.000   5.124
  149        1.584   3.540   0.000   5.124
  150        1.585   3.537   0.000   5.122
  151        1.585   3.537   0.000   5.122
  152        1.584   3.537   0.000   5.121
  153        1.584   3.540   0.000   5.124
  154        1.584   3.540   0.000   5.124
  155        1.584   3.541   0.000   5.125
  156        1.585   3.537   0.000   5.122
--------------------------------------------------
tot        145.972 264.995  24.172 435.139
 


 magnetization (x)
 
# of ion       s       p       d       tot
------------------------------------------
    1        0.003   0.019   0.000   0.022
    2        0.003   0.018   0.000   0.021
    3        0.003   0.019   0.000   0.022
    4        0.003   0.019   0.000   0.022
    5        0.003   0.018   0.000   0.021
    6        0.003   0.018   0.000   0.021
    7        0.003   0.018   0.000   0.021
    8        0.003   0.019   0.000   0.022
    9        0.003   0.019   0.000   0.021
   10        0.003   0.019   0.000   0.022
   11        0.003   0.018   0.000   0.021
   12        0.003   0.019   0.000   0.021
   13        0.003   0.018   0.000   0.021
   14        0.003   0.019   0.000   0.022
   15        0.003   0.019   0.000   0.022
   16        0.003   0.019   0.000   0.022
   17        0.000   0.001   0.000   0.001
   18        0.000   0.001   0.000   0.001
   19        0.000   0.001   0.000   0.001
   20        0.000   0.001   0.000   0.001
   21        0.000   0.001   0.000   0.001
   22        0.000   0.001   0.000   0.001
   23        0.000   0.001   0.000   0.001
   24        0.000   0.001   0.000   0.001
   25        0.000   0.001   0.000   0.001
   26        0.000   0.001   0.000   0.001
   27        0.000   0.001   0.000   0.001
   28        0.000   0.001   0.000   0.001
   29        0.000   0.001   0.000   0.001
   30        0.000   0.001   0.000   0.001
   31        0.000   0.001   0.000   0.001
   32        0.000   0.001   0.000   0.001
   33        0.000   0.001   0.000   0.001
   34        0.000   0.001   0.000   0.001
   35        0.000   0.001   0.000   0.001
   36        0.000   0.001   0.000   0.001
   37        0.000   0.001   0.000   0.001
   38        0.000   0.001   0.000   0.001
   39        0.000   0.001   0.000   0.001
   40        0.000   0.001   0.000   0.001
   41        0.000   0.001   0.000   0.001
   42        0.000   0.001   0.000   0.001
   43        0.000   0.001   0.000   0.001
   44        0.000   0.001   0.000   0.001
   45        0.000   0.001   0.000   0.001
   46        0.000   0.001   0.000   0.001
   47        0.000   0.001   0.000   0.001
   48        0.000   0.001   0.000   0.001
   49        0.000   0.000   0.000   0.000
   50        0.000   0.000   0.000   0.000
   51        0.000   0.000   0.000   0.000
   52        0.000   0.000   0.000   0.000
   53        0.000   0.000   0.000   0.000
   54        0.000   0.000   0.000   0.000
   55        0.000   0.000   0.000   0.000
   56        0.000   0.000   0.000   0.000
   57        0.000   0.000   0.000   0.000
   58        0.000   0.000   0.000   0.000
   59        0.000   0.000   0.000   0.000
   60        0.000   0.000   0.000   0.000
   61        0.000   0.000   0.000   0.000
   62        0.000   0.000   0.000   0.000
   63        0.000   0.000   0.000   0.000
   64        0.000   0.000   0.000   0.000
   65        0.002   0.016   0.000   0.018
   66        0.002   0.016   0.000   0.018
   67        0.002   0.016   0.000   0.018
   68        0.002   0.016   0.000   0.018
   69        0.002   0.016   0.000   0.018
   70        0.002   0.016   0.000   0.018
   71        0.002   0.016   0.000   0.018
   72        0.002   0.016   0.000   0.018
   73       -0.000   0.000   0.000   0.000
   74       -0.000   0.000   0.000   0.000
   75       -0.000   0.000   0.000   0.000
   76       -0.000   0.000   0.000   0.000
   77       -0.000   0.000   0.000   0.000
   78       -0.000   0.000   0.000   0.000
   79       -0.000   0.000   0.000   0.000
   80       -0.000   0.000   0.000   0.000
   81        0.016   0.055   3.426   3.496
   82        0.016   0.055   3.423   3.494
   83        0.016   0.056   3.423   3.494
   84        0.016   0.055   3.425   3.495
   85       -0.000   0.000   0.000  -0.000
   86       -0.000   0.000   0.000  -0.000
   87       -0.000   0.000   0.000  -0.000
   88       -0.000   0.000   0.000  -0.000
   89       -0.000   0.000   0.000  -0.000
   90       -0.000   0.000   0.000  -0.000
   91       -0.000   0.000   0.000  -0.000
   92       -0.000   0.000   0.000  -0.000
   93       -0.000   0.000   0.000  -0.000
   94       -0.000   0.000   0.000  -0.000
   95       -0.000   0.000   0.000  -0.000
   96       -0.000   0.000   0.000  -0.000
   97       -0.000   0.000   0.000  -0.000
   98       -0.000   0.000   0.000  -0.000
   99       -0.000   0.000   0.000  -0.000
  100       -0.000   0.000   0.000  -0.000
  101        0.000   0.000   0.000   0.000
  102        0.000   0.000   0.000   0.000
  103       -0.000   0.000   0.000   0.000
  104       -0.000   0.000   0.000   0.000
  105        0.000   0.000   0.000   0.000
  106       -0.000   0.000   0.000   0.000
  107       -0.000   0.000   0.000   0.000
  108        0.000   0.000   0.000   0.000
  109       -0.000   0.000   0.000   0.000
  110       -0.000   0.000   0.000   0.000
  111        0.000   0.000   0.000   0.000
  112        0.000   0.000   0.000   0.000
  113       -0.000   0.000   0.000   0.000
  114        0.000   0.000   0.000   0.000
  115        0.000   0.000   0.000   0.000
  116       -0.000   0.000   0.000   0.000
  117        0.012   0.038   0.000   0.050
  118        0.015   0.050   0.000   0.064
  119        0.012   0.038   0.000   0.050
  120        0.012   0.039   0.000   0.050
  121        0.015   0.050   0.000   0.065
  122        0.015   0.050   0.000   0.065
  123        0.015   0.050   0.000   0.065
  124        0.012   0.038   0.000   0.050
  125        0.015   0.050   0.000   0.065
  126        0.012   0.039   0.000   0.050
  127        0.015   0.050   0.000   0.065
  128        0.015   0.050   0.000   0.065
  129        0.015   0.050   0.000   0.065
  130        0.012   0.039   0.000   0.050
  131        0.012   0.038   0.000   0.050
  132        0.012   0.038   0.000   0.050
  133        0.000   0.000   0.000   0.000
  134        0.000   0.000   0.000   0.000
  135        0.000   0.000   0.000   0.000
  136        0.000   0.000   0.000   0.000
  137        0.000   0.000   0.000   0.000
  138        0.000   0.000   0.000   0.000
  139        0.000   0.000   0.000   0.000
  140        0.000   0.000   0.000   0.000
  141        0.000   0.002   0.000   0.002
  142        0.000   0.001   0.000   0.001
  143        0.000   0.001   0.000   0.002
  144        0.000   0.001   0.000   0.002
  145        0.000   0.001   0.000   0.002
  146        0.000   0.002   0.000   0.002
  147        0.000   0.002   0.000   0.002
  148        0.000   0.002   0.000   0.002
  149        0.000   0.002   0.000   0.002
  150        0.000   0.001   0.000   0.002
  151        0.000   0.001   0.000   0.002
  152        0.000   0.001   0.000   0.001
  153        0.000   0.002   0.000   0.002
  154        0.000   0.002   0.000   0.002
  155        0.000   0.002   0.000   0.002
  156        0.000   0.001   0.000   0.002
--------------------------------------------------
tot          0.339   1.423  13.697  15.459
 

 total amount of memory used by VASP MPI-rank0   130649. kBytes
=======================================================================

   base      :      30000. kBytes
   nonlr-proj:       6957. kBytes
   fftplans  :       6912. kBytes
   grid      :      19304. kBytes
   one-center:       1213. kBytes
   wavefun   :      66263. kBytes
 
  
  
 General timing and accounting informations for this job:
 ========================================================
  
                  Total CPU time used (sec):     2821.669
                            User time (sec):     2681.701
                          System time (sec):      139.967
                         Elapsed time (sec):     2838.593
  
                   Maximum memory used (kb):     1030884.
                   Average memory used (kb):           0.
  
                          Minor page faults:        99112
                          Major page faults:           10
                 Voluntary context switches:        50029
