       N       E                     dE             d eps       ncg     rms          rms(c)
DAV:   1     0.555793946442E+04    0.55579E+04   -0.26727E+05  4608   0.142E+03
DAV:   2    -0.275267401664E+03   -0.58332E+04   -0.56281E+04  6624   0.319E+02
DAV:   3    -0.125731518092E+04   -0.98205E+03   -0.97304E+03  5472   0.138E+02
DAV:   4    -0.129990409678E+04   -0.42589E+02   -0.42248E+02  6880   0.432E+01
DAV:   5    -0.130066487719E+04   -0.76078E+00   -0.75694E+00  6016   0.440E+00
DAV:   6    -0.130070780596E+04   -0.42929E-01   -0.42876E-01  7168   0.128E+00
DAV:   7    -0.130070857422E+04   -0.76826E-03   -0.76724E-03  6048   0.130E-01
DAV:   8    -0.130070860725E+04   -0.33032E-04   -0.33021E-04  7296   0.279E-02    0.953E+01
DAV:   9    -0.162411167347E+04   -0.32340E+03   -0.39983E+03  7648   0.835E+01    0.330E+02
DAV:  10    -0.152561240000E+04    0.98499E+02   -0.25585E+02  5664   0.327E+01    0.209E+02
DAV:  11    -0.118939049136E+04    0.33622E+03   -0.72238E+02  6432   0.860E+01    0.764E+01
DAV:  12    -0.116703694586E+04    0.22354E+02   -0.72577E+02  6752   0.558E+01    0.457E+01
DAV:  13    -0.116811225652E+04   -0.10753E+01   -0.13587E+02  5856   0.150E+01    0.382E+01
DAV:  14    -0.118255230974E+04   -0.14440E+02   -0.29405E+02  7040   0.252E+01    0.655E+01
DAV:  15    -0.116655046952E+04    0.16002E+02   -0.15075E+02  6688   0.265E+01    0.405E+01
DAV:  16    -0.117061019116E+04   -0.40597E+01   -0.20267E+02  6624   0.136E+01    0.553E+01
DAV:  17    -0.116629932552E+04    0.43109E+01   -0.18781E+02  6720   0.111E+01    0.406E+01
DAV:  18    -0.116354602702E+04    0.27533E+01   -0.87248E+01  6720   0.112E+01    0.301E+01
DAV:  19    -0.116365962144E+04   -0.11359E+00   -0.23860E+01  6496   0.634E+00    0.219E+01
DAV:  20    -0.116663473145E+04   -0.29751E+01   -0.20119E+00  5984   0.227E+00    0.215E+01
DAV:  21    -0.116887304685E+04   -0.22383E+01   -0.52726E+00  5952   0.203E+00    0.220E+01
DAV:  22    -0.116910411003E+04   -0.23106E+00   -0.16151E+00  5760   0.126E+00    0.214E+01
DAV:  23    -0.116928579569E+04   -0.18169E+00   -0.44649E-01  5792   0.529E-01    0.209E+01
DAV:  24    -0.116945343404E+04   -0.16764E+00   -0.19247E-02  5664   0.281E-01    0.207E+01
DAV:  25    -0.117223670270E+04   -0.27833E+01   -0.40035E+00  5536   0.253E+00    0.196E+01
DAV:  26    -0.117284404879E+04   -0.60735E+00   -0.51977E-01  6112   0.136E+00    0.184E+01
DAV:  27    -0.117327792487E+04   -0.43388E+00   -0.46469E-01  6176   0.128E+00    0.165E+01
DAV:  28    -0.117402690321E+04   -0.74898E+00   -0.24891E+00  6240   0.351E+00    0.973E+00
DAV:  29    -0.117438872782E+04   -0.36182E+00   -0.10204E+00  6080   0.190E+00    0.735E+00
DAV:  30    -0.117444337002E+04   -0.54642E-01   -0.13660E-01  6112   0.104E+00    0.661E+00
DAV:  31    -0.117451717900E+04   -0.73809E-01   -0.63585E-01  6080   0.203E+00    0.514E+00
DAV:  32    -0.117458692531E+04   -0.69746E-01   -0.25055E-01  6176   0.862E-01    0.582E+00
DAV:  33    -0.117440627807E+04    0.18065E+00   -0.20326E-01  6016   0.128E+00    0.384E+00
DAV:  34    -0.117443556615E+04   -0.29288E-01   -0.47068E-01  5856   0.129E+00    0.347E+00
DAV:  35    -0.117454152668E+04   -0.10596E+00   -0.45734E-02  6048   0.593E-01    0.321E+00
DAV:  36    -0.117465585800E+04   -0.11433E+00   -0.47293E-02  5696   0.534E-01    0.267E+00
DAV:  37    -0.117472313728E+04   -0.67279E-01   -0.63174E-02  6176   0.706E-01    0.211E+00
DAV:  38    -0.117471663399E+04    0.65033E-02   -0.28046E-02  6336   0.417E-01    0.168E+00
DAV:  39    -0.117467552627E+04    0.41108E-01   -0.37244E-02  5888   0.501E-01    0.122E+00
DAV:  40    -0.117464892058E+04    0.26606E-01   -0.47503E-02  5824   0.392E-01    0.139E+00
DAV:  41    -0.117464351382E+04    0.54068E-02   -0.10829E-02  6304   0.347E-01    0.949E-01
DAV:  42    -0.117465270650E+04   -0.91927E-02   -0.49620E-03  6112   0.175E-01    0.935E-01
DAV:  43    -0.117471575612E+04   -0.63050E-01   -0.10844E-02  6080   0.267E-01    0.986E-01
DAV:  44    -0.117477030773E+04   -0.54552E-01   -0.78675E-03  6304   0.257E-01    0.666E-01
DAV:  45    -0.117482174167E+04   -0.51434E-01   -0.53197E-03  6432   0.183E-01    0.397E-01
DAV:  46    -0.117486787532E+04   -0.46134E-01   -0.30640E-03  5792   0.103E-01    0.398E-01
DAV:  47    -0.117488397989E+04   -0.16105E-01   -0.82831E-04  5952   0.620E-02    0.357E-01
DAV:  48    -0.117492363030E+04   -0.39650E-01   -0.19775E-03  5536   0.906E-02    0.294E-01
DAV:  49    -0.117498297229E+04   -0.59342E-01   -0.44473E-03  5632   0.123E-01    0.248E-01
DAV:  50    -0.117500035331E+04   -0.17381E-01   -0.11900E-03  6272   0.696E-02    0.191E-01
DAV:  51    -0.117500503919E+04   -0.46859E-02   -0.15961E-04  6336   0.297E-02    0.182E-01
DAV:  52    -0.117501585606E+04   -0.10817E-01   -0.64373E-04  5824   0.622E-02    0.127E-01
DAV:  53    -0.117502164343E+04   -0.57874E-02   -0.86520E-04  5728   0.520E-02    0.109E-01
DAV:  54    -0.117502266136E+04   -0.10179E-02   -0.40469E-04  5472   0.473E-02    0.666E-02
DAV:  55    -0.117502451797E+04   -0.18566E-02   -0.18167E-04  5440   0.300E-02    0.528E-02
DAV:  56    -0.117502552224E+04   -0.10043E-02   -0.13623E-04  5728   0.259E-02    0.445E-02
DAV:  57    -0.117502591749E+04   -0.39525E-03   -0.47735E-05  6016   0.147E-02    0.397E-02
DAV:  58    -0.117502603911E+04   -0.12162E-03   -0.28211E-05  5504   0.107E-02    0.312E-02
DAV:  59    -0.117502610431E+04   -0.65205E-04   -0.51431E-05  5568   0.160E-02    0.177E-02
DAV:  60    -0.117502627554E+04   -0.17123E-03   -0.15152E-05  5984   0.105E-02    0.180E-02
DAV:  61    -0.117502644969E+04   -0.17415E-03   -0.99312E-06  5056   0.552E-03    0.214E-02
DAV:  62    -0.117502663906E+04   -0.18937E-03   -0.10948E-05  5248   0.576E-03    0.171E-02
DAV:  63    -0.117502673549E+04   -0.96427E-04   -0.35659E-06  5088   0.355E-03    0.132E-02
DAV:  64    -0.117502674276E+04   -0.72709E-05   -0.26180E-06  4224   0.477E-03    0.139E-02
DAV:  65    -0.117502673991E+04    0.28473E-05   -0.29610E-07  3424   0.140E-03    0.139E-02
DAV:  66    -0.117502674183E+04   -0.19195E-05   -0.67233E-08  3296   0.635E-04    0.140E-02
DAV:  67    -0.117502674407E+04   -0.22370E-05   -0.33947E-08  3264   0.510E-04    0.143E-02
DAV:  68    -0.117502685805E+04   -0.11399E-03   -0.20199E-06  4096   0.351E-03    0.161E-02
DAV:  69    -0.117502690184E+04   -0.43786E-04   -0.51488E-06  4992   0.615E-03    0.180E-02
DAV:  70    -0.117502707479E+04   -0.17295E-03   -0.23695E-06  4224   0.298E-03    0.208E-02
DAV:  71    -0.117502730951E+04   -0.23472E-03   -0.47162E-06  4768   0.459E-03    0.229E-02
DAV:  72    -0.117502745416E+04   -0.14465E-03   -0.34437E-06  5024   0.359E-03    0.231E-02
DAV:  73    -0.117502761638E+04   -0.16221E-03   -0.46009E-06  5376   0.341E-03    0.221E-02
DAV:  74    -0.117502789739E+04   -0.28101E-03   -0.11994E-05  5440   0.535E-03    0.200E-02
DAV:  75    -0.117502802502E+04   -0.12763E-03   -0.12819E-05  5088   0.410E-03    0.182E-02
DAV:  76    -0.117502802348E+04    0.15389E-05   -0.11550E-05  5376   0.374E-03    0.156E-02
DAV:  77    -0.117502800487E+04    0.18615E-04   -0.29453E-06  4384   0.237E-03    0.140E-02
DAV:  78    -0.117502796864E+04    0.36223E-04   -0.26383E-06  4480   0.273E-03    0.117E-02
DAV:  79    -0.117502781344E+04    0.15520E-03   -0.12606E-05  5344   0.679E-03    0.940E-03
DAV:  80    -0.117502783264E+04   -0.19202E-04   -0.51229E-06  5504   0.423E-03    0.984E-03
DAV:  81    -0.117502788766E+04   -0.55013E-04   -0.56851E-06  5472   0.443E-03    0.725E-03
DAV:  82    -0.117502795388E+04   -0.66227E-04   -0.45109E-06  5312   0.381E-03    0.482E-03
DAV:  83    -0.117502806745E+04   -0.11356E-03   -0.21216E-06  4320   0.230E-03    0.335E-03
DAV:  84    -0.117502816636E+04   -0.98909E-04   -0.25712E-06  4512   0.198E-03    0.233E-03
DAV:  85    -0.117502819965E+04   -0.33289E-04   -0.11154E-06  3936   0.192E-03    0.200E-03
DAV:  86    -0.117502822156E+04   -0.21912E-04   -0.78874E-07  3712   0.131E-03    0.161E-03
DAV:  87    -0.117502822820E+04   -0.66468E-05   -0.44608E-07  3584   0.126E-03    0.556E-04
DAV:  88    -0.117502822944E+04   -0.12388E-05   -0.16183E-07  3584   0.818E-04    0.387E-04
DAV:  89    -0.117502823002E+04   -0.58007E-06   -0.83636E-08  3232   0.544E-04
   1 F= -.11856838E+04 E0= -.11856596E+04  d E =-.118568E+04  mag=    -0.0000
