 vasp.6.0.8 29Jun18 (build Mar 14 2019 11:44:20) complex                        
  
 executed on             LinuxIFC date 2020.12.24  11:06:52
 running  128 mpi-ranks, with    1 threads/rank
 distrk:  each k-point on  128 cores,    1 groups
 distr:  one band on NCORES_PER_BAND=   4 cores,   32 groups


--------------------------------------------------------------------------------------------------------


 INCAR:
 POTCAR:    PAW_PBE C 08Apr2002                   
 POTCAR:    PAW_PBE Fe 06Sep2000                  
 POTCAR:    PAW_PBE H 15Jun2001                   
 POTCAR:    PAW_PBE N 08Apr2002                   
 POTCAR:    PAW_PBE O 08Apr2002                   
 POTCAR:    PAW_PBE C 08Apr2002                   
   VRHFIN =C: s2p2                                                              
   LEXCH  = PE                                                                  
   EATOM  =   147.1560 eV,   10.8157 Ry                                         
                                                                                
   TITEL  = PAW_PBE C 08Apr2002                                                 
   LULTRA =        F    use ultrasoft PP ?                                      
   IUNSCR =        1    unscreen: 0-lin 1-nonlin 2-no                           
   RPACOR =    1.200    partial core radius                                     
   POMASS =   12.011; ZVAL   =    4.000    mass and valenz                      
   RCORE  =    1.500    outmost cutoff radius                                   
   RWIGS  =    1.630; RWIGS  =    0.863    wigner-seitz radius (au A)           
   ENMAX  =  400.000; ENMIN  =  300.000 eV                                      
   ICORE  =        2    local potential                                         
   LCOR   =        T    correct aug charges                                     
   LPAW   =        T    paw PP                                                  
   EAUG   =  644.873                                                            
   DEXC   =    0.000                                                            
   RMAX   =    1.529    core radius for proj-oper                               
   RAUG   =    1.300    factor for augmentation sphere                          
   RDEP   =    1.501    radius for radial grids                                 
   RDEPT  =    1.300    core radius for aug-charge                              
                                                                                
   Atomic configuration                                                         
    4 entries                                                                   
     n  l   j            E        occ.                                          
     1  0  0.50      -273.3789   2.0000                                         
     2  0  0.50       -13.7508   2.0000                                         
     2  1  0.50        -5.2854   2.0000                                         
     3  2  1.50        -5.4423   0.0000                                         
   Description                                                                  
     l       E           TYP  RCUT    TYP  RCUT                                 
     0    -13.7508458     23  1.200                                             
     0     -8.2022199     23  1.200                                             
     1     -5.2854383     23  1.500                                             
     1     34.0145650     23  1.500                                             
     2     -5.4423304      7  1.500                                             
  local pseudopotential read in
  partial core-charges read in
  partial kinetic energy density read in
  atomic valenz-charges read in
  non local Contribution for L=           0  read in
    real space projection operators read in
  non local Contribution for L=           0  read in
    real space projection operators read in
  non local Contribution for L=           1  read in
    real space projection operators read in
  non local Contribution for L=           1  read in
    real space projection operators read in
    PAW grid and wavefunctions read in
 
   number of l-projection  operators is LMAX  =           4
   number of lm-projection operators is LMMAX =           8
 
 POTCAR:    PAW_PBE Fe 06Sep2000                  
   VRHFIN =Fe:  d7 s1                                                           
   LEXCH  = PE                                                                  
   EATOM  =   594.3153 eV,   43.6809 Ry                                         
                                                                                
   TITEL  = PAW_PBE Fe 06Sep2000                                                
   LULTRA =        F    use ultrasoft PP ?                                      
   IUNSCR =        1    unscreen: 0-lin 1-nonlin 2-no                           
   RPACOR =    2.000    partial core radius                                     
   POMASS =   55.847; ZVAL   =    8.000    mass and valenz                      
   RCORE  =    2.300    outmost cutoff radius                                   
   RWIGS  =    2.460; RWIGS  =    1.302    wigner-seitz radius (au A)           
   ENMAX  =  267.882; ENMIN  =  200.911 eV                                      
   RCLOC  =    1.701    cutoff for local pot                                    
   LCOR   =        T    correct aug charges                                     
   LPAW   =        T    paw PP                                                  
   EAUG   =  511.368                                                            
   DEXC   =    0.000                                                            
   RMAX   =    2.356    core radius for proj-oper                               
   RAUG   =    1.300    factor for augmentation sphere                          
   RDEP   =    2.442    radius for radial grids                                 
   RDEPT  =    1.890    core radius for aug-charge                              
                                                                                
   Atomic configuration                                                         
    9 entries                                                                   
     n  l   j            E        occ.                                          
     1  0  0.50     -6993.8440   2.0000                                         
     2  0  0.50      -814.6047   2.0000                                         
     2  1  1.50      -693.3689   6.0000                                         
     3  0  0.50       -89.4732   2.0000                                         
     3  1  1.50       -55.6373   6.0000                                         
     3  2  2.50        -3.8151   7.0000                                         
     4  0  0.50        -4.2551   1.0000                                         
     4  1  1.50        -3.4015   0.0000                                         
     4  3  2.50        -1.3606   0.0000                                         
   Description                                                                  
     l       E           TYP  RCUT    TYP  RCUT                                 
     2     -3.8151135     23  2.300                                             
     2     -5.1756961     23  2.300                                             
     0     -4.2550963     23  2.300                                             
     0      7.2035603     23  2.300                                             
     1     -2.7211652     23  2.300                                             
     1     18.4316424     23  2.300                                             
  local pseudopotential read in
  partial core-charges read in
  partial kinetic energy density read in
  atomic valenz-charges read in
  non local Contribution for L=           2  read in
    real space projection operators read in
  non local Contribution for L=           2  read in
    real space projection operators read in
  non local Contribution for L=           0  read in
    real space projection operators read in
  non local Contribution for L=           0  read in
    real space projection operators read in
  non local Contribution for L=           1  read in
    real space projection operators read in
  non local Contribution for L=           1  read in
    real space projection operators read in
    PAW grid and wavefunctions read in
 
   number of l-projection  operators is LMAX  =           6
   number of lm-projection operators is LMMAX =          18
 
 POTCAR:    PAW_PBE H 15Jun2001                   
   VRHFIN =H: ultrasoft test                                                    
   LEXCH  = PE                                                                  
   EATOM  =    12.4884 eV,    0.9179 Ry                                         
                                                                                
   TITEL  = PAW_PBE H 15Jun2001                                                 
   LULTRA =        F    use ultrasoft PP ?                                      
   IUNSCR =        0    unscreen: 0-lin 1-nonlin 2-no                           
   RPACOR =    0.000    partial core radius                                     
   POMASS =    1.000; ZVAL   =    1.000    mass and valenz                      
   RCORE  =    1.100    outmost cutoff radius                                   
   RWIGS  =    0.700; RWIGS  =    0.370    wigner-seitz radius (au A)           
   ENMAX  =  250.000; ENMIN  =  200.000 eV                                      
   RCLOC  =    0.701    cutoff for local pot                                    
   LCOR   =        T    correct aug charges                                     
   LPAW   =        T    paw PP                                                  
   EAUG   =  400.000                                                            
   RMAX   =    1.123    core radius for proj-oper                               
   RAUG   =    1.200    factor for augmentation sphere                          
   RDEP   =    1.112    radius for radial grids                                 
   RDEPT  =    0.926    core radius for aug-charge                              
                                                                                
   Atomic configuration                                                         
    2 entries                                                                   
     n  l   j            E        occ.                                          
     1  0  0.50        -6.4927   1.0000                                         
     2  1  0.50        -3.4015   0.0000                                         
   Description                                                                  
     l       E           TYP  RCUT    TYP  RCUT                                 
     0     -6.4927494     23  1.100                                             
     0      6.8029130     23  1.100                                             
     1     -4.0817478     23  1.100                                             
  local pseudopotential read in
  atomic valenz-charges read in
  non local Contribution for L=           0  read in
    real space projection operators read in
  non local Contribution for L=           0  read in
    real space projection operators read in
  non local Contribution for L=           1  read in
    real space projection operators read in
    PAW grid and wavefunctions read in
 
   number of l-projection  operators is LMAX  =           3
   number of lm-projection operators is LMMAX =           5
 
 POTCAR:    PAW_PBE N 08Apr2002                   
   VRHFIN =N: s2p3                                                              
   LEXCH  = PE                                                                  
   EATOM  =   264.5486 eV,   19.4438 Ry                                         
                                                                                
   TITEL  = PAW_PBE N 08Apr2002                                                 
   LULTRA =        F    use ultrasoft PP ?                                      
   IUNSCR =        1    unscreen: 0-lin 1-nonlin 2-no                           
   RPACOR =    1.200    partial core radius                                     
   POMASS =   14.001; ZVAL   =    5.000    mass and valenz                      
   RCORE  =    1.500    outmost cutoff radius                                   
   RWIGS  =    1.400; RWIGS  =    0.741    wigner-seitz radius (au A)           
   ENMAX  =  400.000; ENMIN  =  300.000 eV                                      
   ICORE  =        2    local potential                                         
   LCOR   =        T    correct aug charges                                     
   LPAW   =        T    paw PP                                                  
   EAUG   =  627.112                                                            
   DEXC   =    0.000                                                            
   RMAX   =    1.529    core radius for proj-oper                               
   RAUG   =    1.300    factor for augmentation sphere                          
   RDEP   =    1.514    radius for radial grids                                 
   RDEPT  =    1.338    core radius for aug-charge                              
                                                                                
   Atomic configuration                                                         
    4 entries                                                                   
     n  l   j            E        occ.                                          
     1  0  0.50      -384.7179   2.0000                                         
     2  0  0.50       -18.5828   2.0000                                         
     2  1  0.50        -7.0898   3.0000                                         
     3  2  1.50        -6.8029   0.0000                                         
   Description                                                                  
     l       E           TYP  RCUT    TYP  RCUT                                 
     0    -18.5828119     23  1.200                                             
     0    -13.5018863     23  1.200                                             
     1     -7.0897853     23  1.500                                             
     1      9.5240782     23  1.500                                             
     2     -6.8029130      7  1.500                                             
  local pseudopotential read in
  partial core-charges read in
  partial kinetic energy density read in
  atomic valenz-charges read in
  non local Contribution for L=           0  read in
    real space projection operators read in
  non local Contribution for L=           0  read in
    real space projection operators read in
  non local Contribution for L=           1  read in
    real space projection operators read in
  non local Contribution for L=           1  read in
    real space projection operators read in
    PAW grid and wavefunctions read in
 
   number of l-projection  operators is LMAX  =           4
   number of lm-projection operators is LMMAX =           8
 
 POTCAR:    PAW_PBE O 08Apr2002                   
   VRHFIN =O: s2p4                                                              
   LEXCH  = PE                                                                  
   EATOM  =   432.3788 eV,   31.7789 Ry                                         
                                                                                
   TITEL  = PAW_PBE O 08Apr2002                                                 
   LULTRA =        F    use ultrasoft PP ?                                      
   IUNSCR =        1    unscreen: 0-lin 1-nonlin 2-no                           
   RPACOR =    1.200    partial core radius                                     
   POMASS =   16.000; ZVAL   =    6.000    mass and valenz                      
   RCORE  =    1.520    outmost cutoff radius                                   
   RWIGS  =    1.550; RWIGS  =    0.820    wigner-seitz radius (au A)           
   ENMAX  =  400.000; ENMIN  =  300.000 eV                                      
   ICORE  =        2    local potential                                         
   LCOR   =        T    correct aug charges                                     
   LPAW   =        T    paw PP                                                  
   EAUG   =  605.392                                                            
   DEXC   =    0.000                                                            
   RMAX   =    1.553    core radius for proj-oper                               
   RAUG   =    1.300    factor for augmentation sphere                          
   RDEP   =    1.550    radius for radial grids                                 
   RDEPT  =    1.329    core radius for aug-charge                              
                                                                                
   Atomic configuration                                                         
    4 entries                                                                   
     n  l   j            E        occ.                                          
     1  0  0.50      -514.6923   2.0000                                         
     2  0  0.50       -23.9615   2.0000                                         
     2  1  0.50        -9.0305   4.0000                                         
     3  2  1.50        -9.5241   0.0000                                         
   Description                                                                  
     l       E           TYP  RCUT    TYP  RCUT                                 
     0    -23.9615318     23  1.200                                             
     0     -9.5240782     23  1.200                                             
     1     -9.0304911     23  1.520                                             
     1      8.1634956     23  1.520                                             
     2     -9.5240782      7  1.500                                             
  local pseudopotential read in
  partial core-charges read in
  partial kinetic energy density read in
  kinetic energy density of atom read in
  atomic valenz-charges read in
  non local Contribution for L=           0  read in
    real space projection operators read in
  non local Contribution for L=           0  read in
    real space projection operators read in
  non local Contribution for L=           1  read in
    real space projection operators read in
  non local Contribution for L=           1  read in
    real space projection operators read in
    PAW grid and wavefunctions read in
 
   number of l-projection  operators is LMAX  =           4
   number of lm-projection operators is LMMAX =           8
 
 Optimization of the real space projectors (new method)

 maximal supplied QI-value         = 25.13
 optimisation between [QCUT,QGAM] = [ 12.32, 24.88] = [ 42.47,173.37] Ry 
 Optimized for a Real-space Cutoff    1.06 Angstroem

   l    n(q)    QCUT    max X(q) W(low)/X(q) W(high)/X(q)  e(spline) 
   0      8    12.315   115.676    0.34E-03    0.18E-03    0.23E-06
   0      8    12.315    87.132    0.34E-03    0.18E-03    0.22E-06
   1      7    12.315     4.429    0.45E-03    0.12E-03    0.18E-06
   1      7    12.315     2.733    0.35E-03    0.97E-04    0.15E-06
 Optimization of the real space projectors (new method)

 maximal supplied QI-value         = 16.25
 optimisation between [QCUT,QGAM] = [ 12.51, 25.03] = [ 43.85,175.40] Ry 
 Optimized for a Real-space Cutoff    1.35 Angstroem

   l    n(q)    QCUT    max X(q) W(low)/X(q) W(high)/X(q)  e(spline) 
   2      9    12.514    80.901    0.12E-03    0.34E-03    0.58E-06
   2      9    12.514    75.754    0.12E-03    0.34E-03    0.59E-06
   0     10    12.514    58.752    0.17E-03    0.81E-04    0.93E-07
   0     10    12.514    30.679    0.15E-03    0.74E-04    0.88E-07
   1     10    12.514    17.977    0.11E-03    0.79E-04    0.24E-06
   1     10    12.514    13.559    0.97E-04    0.61E-04    0.20E-06
 Optimization of the real space projectors (new method)

 maximal supplied QI-value         = 34.20
 optimisation between [QCUT,QGAM] = [ 12.31, 24.97] = [ 42.46,174.58] Ry 
 Optimized for a Real-space Cutoff    1.00 Angstroem

   l    n(q)    QCUT    max X(q) W(low)/X(q) W(high)/X(q)  e(spline) 
   0      7    12.313    19.460    0.14E-03    0.42E-03    0.16E-06
   0      7    12.313    12.209    0.12E-03    0.40E-03    0.16E-06
   1      7    12.313     4.655    0.33E-03    0.59E-03    0.89E-07
 Optimization of the real space projectors (new method)

 maximal supplied QI-value         = 25.13
 optimisation between [QCUT,QGAM] = [ 12.32, 24.88] = [ 42.47,173.37] Ry 
 Optimized for a Real-space Cutoff    1.20 Angstroem

   l    n(q)    QCUT    max X(q) W(low)/X(q) W(high)/X(q)  e(spline) 
   0      9    12.315    79.467    0.14E-03    0.22E-04    0.37E-06
   0      9    12.315    66.151    0.14E-03    0.23E-04    0.36E-06
   1      8    12.315    22.077    0.30E-03    0.54E-03    0.45E-06
   1      8    12.315    15.894    0.30E-03    0.55E-03    0.45E-06
 Optimization of the real space projectors (new method)

 maximal supplied QI-value         = 24.76
 optimisation between [QCUT,QGAM] = [ 12.38, 25.00] = [ 42.90,175.06] Ry 
 Optimized for a Real-space Cutoff    1.13 Angstroem

   l    n(q)    QCUT    max X(q) W(low)/X(q) W(high)/X(q)  e(spline) 
   0      8    12.378    20.381    0.16E-03    0.54E-05    0.27E-06
   0      8    12.378    15.268    0.17E-03    0.61E-05    0.29E-06
   1      8    12.378     5.964    0.38E-03    0.23E-03    0.28E-06
   1      8    12.378     5.382    0.33E-03    0.20E-03    0.25E-06
  PAW_PBE C 08Apr2002                   :
 energy of atom  1       EATOM= -147.1560
 kinetic energy error for atom=    0.0057 (will be added to EATOM!!)
  PAW_PBE Fe 06Sep2000                  :
 energy of atom  2       EATOM= -594.3153
 kinetic energy error for atom=    0.0017 (will be added to EATOM!!)
  PAW_PBE H 15Jun2001                   :
 energy of atom  3       EATOM=  -12.4884
 kinetic energy error for atom=    0.0004 (will be added to EATOM!!)
  PAW_PBE N 08Apr2002                   :
 energy of atom  4       EATOM= -264.5486
 kinetic energy error for atom=    0.0103 (will be added to EATOM!!)
  PAW_PBE O 08Apr2002                   :
 energy of atom  5       EATOM= -432.3788
 kinetic energy error for atom=    0.0168 (will be added to EATOM!!)
 
 
 POSCAR: FeH_exp1
  positions in direct lattice
  velocities in cartesian coordinates
 exchange correlation table for  LEXCH =        8
   RHO(1)=    0.500       N(1)  =     2000
   RHO(2)=  100.500       N(2)  =     4000
 


--------------------------------------------------------------------------------------------------------


 ion  position               nearest neighbor table
   1  0.897  0.971  0.087- 107 1.09 117 1.35  65 1.40
   2  0.932  0.983  0.396- 112 1.08 118 1.35  65 1.40
   3  0.897  0.811  0.919- 116 1.09 119 1.35  66 1.40
   4  0.602  0.471  0.590- 110 1.09 120 1.35  67 1.40
   5  0.569  0.298  0.116- 111 1.08 121 1.35  68 1.40
   6  0.067  0.797  0.111- 115 1.08 122 1.35  69 1.40
   7  0.568  0.483  0.899- 101 1.08 123 1.35  67 1.40
   8  0.603  0.310  0.424- 113 1.09 124 1.35  68 1.40
   9  0.432  0.483  0.398- 114 1.08 125 1.35  70 1.40
  10  0.102  0.810  0.420- 104 1.09 126 1.35  69 1.40
  11  0.068  0.983  0.895- 105 1.08 127 1.35  71 1.40
  12  0.432  0.297  0.614- 102 1.08 128 1.35  72 1.40
  13  0.932  0.798  0.611- 108 1.08 129 1.35  66 1.40
  14  0.103  0.970  0.587- 109 1.09 130 1.35  71 1.40
  15  0.398  0.309  0.923- 106 1.09 131 1.35  72 1.40
  16  0.397  0.470  0.090- 103 1.09 132 1.35  70 1.40
  17  0.820  0.036  0.440- 141 1.23 133 1.42  33 1.48
  18  0.845  0.084  0.059- 142 1.23 133 1.42  34 1.48
  19  0.844  0.698  0.951- 143 1.23 134 1.42  35 1.48
  20  0.655  0.584  0.560- 144 1.23 135 1.42  36 1.48
  21  0.656  0.198  0.455- 145 1.23 136 1.42  37 1.48
  22  0.180  0.745  0.069- 146 1.23 137 1.42  38 1.48
  23  0.680  0.536  0.941- 147 1.23 135 1.42  39 1.48
  24  0.681  0.246  0.074- 148 1.23 136 1.42  40 1.48
  25  0.319  0.535  0.440- 149 1.23 138 1.42  41 1.48
  26  0.154  0.697  0.450- 150 1.23 137 1.42  42 1.48
  27  0.156  0.083  0.557- 151 1.23 139 1.42  43 1.48
  28  0.345  0.197  0.952- 152 1.23 140 1.42  44 1.48
  29  0.819  0.746  0.570- 153 1.23 134 1.42  45 1.48
  30  0.181  0.035  0.938- 154 1.23 139 1.42  46 1.48
  31  0.320  0.245  0.571- 155 1.23 140 1.42  47 1.48
  32  0.344  0.583  0.059- 156 1.23 138 1.42  48 1.48
  33  0.778  0.077  0.438-  49 1.39  73 1.42  17 1.48
  34  0.804  0.125  0.069-  50 1.39  73 1.42  18 1.48
  35  0.803  0.657  0.942-  51 1.39  74 1.42  19 1.48
  36  0.696  0.625  0.568-  52 1.39  75 1.42  20 1.48
  37  0.698  0.156  0.445-  53 1.39  76 1.42  21 1.48
  38  0.222  0.703  0.072-  54 1.39  77 1.42  22 1.48
  39  0.722  0.578  0.938-  55 1.39  75 1.42  23 1.48
  40  0.724  0.204  0.076-  56 1.39  76 1.42  24 1.48
  41  0.276  0.576  0.437-  57 1.39  78 1.42  25 1.48
  42  0.196  0.655  0.441-  58 1.39  77 1.42  26 1.48
  43  0.197  0.124  0.566-  59 1.39  79 1.42  27 1.48
  44  0.304  0.155  0.942-  60 1.39  80 1.42  28 1.48
  45  0.776  0.704  0.573-  61 1.39  74 1.42  29 1.48
  46  0.224  0.076  0.936-  62 1.39  79 1.42  30 1.48
  47  0.278  0.203  0.573-  63 1.39  80 1.42  31 1.48
  48  0.303  0.624  0.067-  64 1.39  78 1.42  32 1.48
  49  0.745  0.074  0.619-  88 1.09  33 1.39  53 1.40
  50  0.797  0.169  0.892-  99 1.09  34 1.39  56 1.40
  51  0.796  0.613  0.120-  93 1.09  35 1.39  55 1.40
  52  0.703  0.669  0.390-  90 1.09  36 1.39  61 1.40
  53  0.705  0.113  0.622-  98 1.09  37 1.39  49 1.40
  54  0.255  0.707  0.891-  96 1.09  38 1.39  64 1.40
  55  0.756  0.574  0.118-  86 1.09  39 1.39  51 1.40
  56  0.757  0.208  0.895-  87 1.09  40 1.39  50 1.40
  57  0.243  0.573  0.617-  95 1.09  41 1.39  58 1.40
  58  0.203  0.612  0.619-  91 1.09  42 1.39  57 1.40
  59  0.205  0.168  0.389-  92 1.09  43 1.39  63 1.40
  60  0.297  0.112  0.120-  85 1.09  44 1.39  62 1.40
  61  0.743  0.708  0.393-  89 1.09  45 1.39  52 1.40
  62  0.257  0.073  0.117- 100 1.09  46 1.39  60 1.40
  63  0.245  0.207  0.392-  94 1.09  47 1.39  59 1.40
  64  0.295  0.668  0.889-  97 1.09  48 1.39  54 1.40
  65  0.891  0.001  0.243-   2 1.40   1 1.40 133 1.42
  66  0.890  0.781  0.765-  13 1.40   3 1.40 134 1.42
  67  0.609  0.501  0.745-   7 1.40   4 1.40 135 1.42
  68  0.610  0.280  0.270-   5 1.40   8 1.40 136 1.42
  69  0.109  0.779  0.265-   6 1.40  10 1.40 137 1.42
  70  0.390  0.500  0.244-   9 1.40  16 1.40 138 1.42
  71  0.110  0.001  0.742-  11 1.40  14 1.40 139 1.42
  72  0.391  0.279  0.768-  12 1.40  15 1.40 140 1.42
  73  0.771  0.121  0.255-  34 1.42  33 1.42  76 1.43
  74  0.770  0.661  0.756-  35 1.42  45 1.42  75 1.43
  75  0.729  0.621  0.754-  36 1.42  39 1.42  74 1.43
  76  0.730  0.161  0.259-  37 1.42  40 1.42  73 1.43
  77  0.229  0.660  0.255-  42 1.42  38 1.42  78 1.43
  78  0.270  0.620  0.253-  48 1.42  41 1.42  77 1.43
  79  0.230  0.120  0.753-  43 1.42  46 1.42  80 1.43
  80  0.271  0.160  0.756-  44 1.42  47 1.42  79 1.43
  81  0.985  0.891  0.003- 119 2.00 117 2.00 127 2.01 122 2.01
  82  0.015  0.890  0.503- 126 2.00 130 2.00 118 2.01 129 2.01
  83  0.514  0.390  0.507- 120 2.00 124 2.00 128 2.01 125 2.01
  84  0.486  0.390  0.007- 132 2.00 131 2.00 123 2.01 121 2.01
  85  0.323  0.109  0.261-  60 1.09
  86  0.750  0.540  0.257-  55 1.09
  87  0.751  0.242  0.757-  56 1.09
  88  0.751  0.040  0.757-  49 1.09
  89  0.749  0.742  0.253-  61 1.09
  90  0.677  0.671  0.249-  52 1.09
  91  0.177  0.609  0.760-  58 1.09
  92  0.179  0.170  0.248-  59 1.09
  93  0.822  0.611  0.261-  51 1.09
  94  0.251  0.241  0.254-  63 1.09
  95  0.249  0.539  0.756-  57 1.09
  96  0.249  0.740  0.752-  54 1.09
  97  0.321  0.670  0.748-  64 1.09
  98  0.679  0.110  0.764-  53 1.09
  99  0.822  0.172  0.750-  50 1.09
 100  0.251  0.039  0.255-  62 1.09
 101  0.558  0.496  0.045-   7 1.08
 102  0.442  0.285  0.468-  12 1.08
 103  0.374  0.472  0.942-  16 1.09
 104  0.125  0.808  0.568-  10 1.09
 105  0.059  0.996  0.042-  11 1.08
 106  0.375  0.308  0.071-  15 1.09
 107  0.875  0.973  0.940-   1 1.09
 108  0.941  0.785  0.465-  13 1.08
 109  0.126  0.972  0.439-  14 1.09
 110  0.625  0.473  0.442-   4 1.09
 111  0.559  0.285  0.970-   5 1.08
 112  0.942  0.996  0.542-   2 1.08
 113  0.626  0.309  0.572-   8 1.09
 114  0.441  0.496  0.544-   9 1.08
 115  0.058  0.785  0.964-   6 1.08
 116  0.874  0.809  0.067-   3 1.09
 117  0.940  0.937  0.146-   1 1.35 118 1.37  81 2.00
 118  0.962  0.945  0.335-   2 1.35 117 1.37  82 2.01
 119  0.940  0.845  0.860-   3 1.35 129 1.37  81 2.00
 120  0.560  0.437  0.650-   4 1.35 123 1.37  83 2.00
 121  0.539  0.336  0.175-   5 1.35 124 1.37  84 2.01
 122  0.038  0.836  0.171-   6 1.35 126 1.37  81 2.01
 123  0.538  0.445  0.839-   7 1.35 120 1.37  84 2.01
 124  0.560  0.344  0.364-   8 1.35 121 1.37  83 2.00
 125  0.461  0.444  0.339-   9 1.35 132 1.37  83 2.01
 126  0.060  0.844  0.360-  10 1.35 122 1.37  82 2.00
 127  0.039  0.944  0.835-  11 1.35 130 1.37  81 2.01
 128  0.462  0.336  0.675-  12 1.35 131 1.37  83 2.01
 129  0.961  0.837  0.671-  13 1.35 119 1.37  82 2.01
 130  0.060  0.937  0.646-  14 1.35 127 1.37  82 2.00
 131  0.440  0.344  0.864-  15 1.35 128 1.37  84 2.00
 132  0.440  0.436  0.150-  16 1.35 125 1.37  84 2.00
 133  0.851  0.041  0.247-  17 1.42  18 1.42  65 1.42
 134  0.850  0.741  0.762-  29 1.42  19 1.42  66 1.42
 135  0.649  0.541  0.749-  23 1.42  20 1.42  67 1.42
 136  0.650  0.240  0.266-  24 1.42  21 1.42  68 1.42
 137  0.149  0.739  0.261-  22 1.42  26 1.42  69 1.42
 138  0.350  0.540  0.248-  25 1.42  32 1.42  70 1.42
 139  0.150  0.041  0.746-  30 1.42  27 1.42  71 1.42
 140  0.351  0.239  0.764-  31 1.42  28 1.42  72 1.42
 141  0.828  0.998  0.597-  17 1.23
 142  0.873  0.085  0.897-  18 1.23
 143  0.873  0.697  0.111-  19 1.23
 144  0.626  0.585  0.399-  20 1.23
 145  0.628  0.196  0.616-  21 1.23
 146  0.171  0.782  0.911-  22 1.23
 147  0.672  0.499  0.099-  23 1.23
 148  0.673  0.283  0.916-  24 1.23
 149  0.327  0.498  0.598-  25 1.23
 150  0.126  0.696  0.611-  26 1.23
 151  0.128  0.084  0.396-  27 1.23
 152  0.374  0.195  0.113-  28 1.23
 153  0.827  0.783  0.411-  29 1.23
 154  0.173  0.997  0.096-  30 1.23
 155  0.329  0.282  0.414-  31 1.23
 156  0.373  0.584  0.898-  32 1.23
 

IMPORTANT INFORMATION: All symmetrisations will be switched off!
NOSYMM: (Re-)initialisation of all symmetry stuff for point group C_1.


----------------------------------------------------------------------------------------

                                     Primitive cell                                     

  volume of cell :    3866.1300

  direct lattice vectors                    reciprocal lattice vectors
    24.424755440  0.001254373 -0.005811139     0.040942071  0.000000115  0.000010631
    -0.001063973 25.284912226  3.824110872    -0.000002947  0.040112859 -0.003726389
    -0.001650301  0.589840173  6.349358860     0.000039246 -0.024159293  0.159740567

  length of vectors
    24.424756164 25.572458063  6.376697584     0.040942072  0.040285574  0.161557178

  position of ions in fractional coordinates (direct lattice)
     0.897488204  0.971170722  0.087260540
     0.932395432  0.983416900  0.395587265
     0.896992354  0.810848329  0.919270470
     0.602324800  0.471095279  0.590245076
     0.568531910  0.297750473  0.115959668
     0.067454586  0.797439068  0.111145244
     0.567654468  0.483371231  0.898782468
     0.602993292  0.310443783  0.424302085
     0.431680650  0.482973659  0.397918389
     0.102137376  0.809555741  0.420011774
     0.068413243  0.983020851  0.895204335
     0.432443873  0.297422743  0.614496190
     0.931536312  0.798108234  0.611281387
     0.103018465  0.970445899  0.587070237
     0.397801026  0.309420292  0.923484671
     0.397055151  0.470199061  0.089988215
     0.820042352  0.035848421  0.439528659
     0.845116854  0.083904610  0.058695361
     0.844222666  0.698204437  0.950746004
     0.654571525  0.583856265  0.559512792
     0.656094516  0.197789993  0.454921989
     0.179632154  0.744500378  0.069149470
     0.679919767  0.536260171  0.940702173
     0.681109661  0.245752830  0.073925557
     0.318964305  0.535093908  0.439587640
     0.154412132  0.696788637  0.450202040
     0.155927170  0.083001720  0.557051820
     0.345410642  0.196720731  0.952114133
     0.818859642  0.745850695  0.569691719
     0.181038592  0.035078369  0.938150297
     0.320274181  0.244682756  0.571175984
     0.344231720  0.582854105  0.058605378
     0.777757211  0.077295461  0.438111404
     0.803777758  0.125468779  0.068618267
     0.802693581  0.656703301  0.942219793
     0.695985784  0.625468877  0.568077235
     0.697558358  0.156311891  0.445166647
     0.222021652  0.703078504  0.071632653
     0.722295241  0.577718497  0.937854609
     0.723530987  0.204414279  0.075632925
     0.276459840  0.576427282  0.436780795
     0.195914249  0.655282958  0.441389151
     0.197473534  0.124433428  0.566474874
     0.303958855  0.155219902  0.942462901
     0.776367454  0.704483529  0.572585616
     0.223516395  0.076387036  0.936161584
     0.277902613  0.203286563  0.572854240
     0.302568882  0.624251771  0.067013139
     0.744539553  0.073508436  0.618787609
     0.796652779  0.169081732  0.891550872
     0.795638163  0.613322858  0.120122507
     0.703018342  0.668891762  0.390242581
     0.704742496  0.112745827  0.622347547
     0.255321624  0.706723248  0.891309122
     0.755705288  0.574118525  0.117955325
     0.756795717  0.208266693  0.895033392
     0.243091174  0.572743613  0.616923330
     0.203096696  0.611891782  0.619243189
     0.204694386  0.167920283  0.389032876
     0.296810564  0.111680628  0.119754322
     0.742923137  0.708126260  0.392524258
     0.256862738  0.072550471  0.116614520
     0.244628293  0.207064093  0.392228659
     0.295322571  0.667588685  0.888978036
     0.891105907  0.001238794  0.242692967
     0.890325524  0.780580531  0.764656518
     0.608759129  0.501273899  0.745284254
     0.609703942  0.280186531  0.269687622
     0.108526742  0.779414799  0.264809895
     0.390439907  0.500497295  0.244487439
     0.109659920  0.000608475  0.742061279
     0.391356682  0.279391007  0.767903697
     0.770955874  0.120886788  0.255124651
     0.769662538  0.661084785  0.756298669
     0.728990530  0.621106076  0.754069178
     0.730364814  0.160848648  0.258667948
     0.228865291  0.659701205  0.255362112
     0.269609112  0.619806709  0.253036179
     0.230362769  0.119883701  0.752890176
     0.271052660  0.159783608  0.756080795
     0.985492596  0.890715367  0.002986185
     0.014551908  0.890452644  0.503012258
     0.514473816  0.390481993  0.506866806
     0.485600644  0.390190195  0.007053584
     0.322716726  0.109165539  0.261010905
     0.749741203  0.540315586  0.257103383
     0.750742753  0.242227623  0.756575059
     0.750549724  0.039535306  0.757252803
     0.748860741  0.741952289  0.253442809
     0.677058939  0.671242200  0.249241308
     0.177176808  0.609499866  0.760278140
     0.178836473  0.170410307  0.247655222
     0.821631480  0.610967319  0.261025305
     0.250694256  0.240949977  0.253508937
     0.249166197  0.538960972  0.756066782
     0.249233475  0.740495748  0.752148568
     0.321222000  0.669977489  0.747884092
     0.678952892  0.110277579  0.763797835
     0.822491274  0.171597361  0.750198620
     0.250808425  0.038646506  0.255293359
     0.558129266  0.495968015  0.045402437
     0.441954524  0.284971699  0.467575166
     0.374241324  0.471646322  0.942303206
     0.124915776  0.807742581  0.568082539
     0.058970473  0.995684027  0.041735147
     0.375012225  0.307574077  0.071453725
     0.874563895  0.972884238  0.939613716
     0.940947601  0.785348886  0.464935378
     0.125840464  0.971987806  0.439418011
     0.625109421  0.472838847  0.442347716
     0.559160139  0.284994862  0.969528243
     0.942005872  0.995959498  0.542268266
     0.625726177  0.308987909  0.572185410
     0.441131926  0.495746774  0.544244711
     0.057909001  0.784904413  0.964402587
     0.874211593  0.809399355  0.066954510
     0.940076426  0.937128413  0.145969895
     0.961611925  0.944831275  0.335142846
     0.939660584  0.844716709  0.859647051
     0.559889675  0.436915664  0.649743590
     0.539076083  0.336366378  0.175150708
     0.038369516  0.836212147  0.170908909
     0.538496422  0.444623819  0.839065733
     0.560342265  0.344342248  0.364316251
     0.461087042  0.444338213  0.338645735
     0.059774829  0.843834224  0.360413109
     0.038968366  0.944488969  0.835282815
     0.461588663  0.336089103  0.674752822
     0.960984095  0.836710314  0.670699953
     0.060323899  0.936579204  0.646229501
     0.440217713  0.343639957  0.864334118
     0.439722013  0.436313639  0.149716027
     0.851010895  0.041273126  0.246933813
     0.850062126  0.740605268  0.761753083
     0.648796950  0.541427706  0.748505778
     0.650032059  0.240289465  0.266308586
     0.148550648  0.739255417  0.261367096
     0.350142731  0.540432699  0.247539906
     0.149955323  0.040508152  0.745712174
     0.351297207  0.239306310  0.763741542
     0.828358221  0.998101822  0.596973856
     0.873203961  0.085248051  0.897467952
     0.872503509  0.696959428  0.111483192
     0.626340516  0.585000149  0.398738315
     0.628021635  0.196433102  0.616183110
     0.171366150  0.782097013  0.911138256
     0.671684730  0.498717444  0.098934237
     0.672745010  0.283428505  0.916289046
     0.327283963  0.497533719  0.597712389
     0.126218945  0.695535510  0.611070684
     0.127743379  0.084368565  0.395958224
     0.373565475  0.195361703  0.113288037
     0.827145729  0.783366393  0.411434753
     0.172655861  0.997456356  0.095942967
     0.328582966  0.282361465  0.413530224
     0.372555596  0.584188434  0.898012996

  ion indices of the primitive-cell ions
   primitive index   ion index
                 1           1
                 2           2
                 3           3
                 4           4
                 5           5
                 6           6
                 7           7
                 8           8
                 9           9
                10          10
                11          11
                12          12
                13          13
                14          14
                15          15
                16          16
                17          17
                18          18
                19          19
                20          20
                21          21
                22          22
                23          23
                24          24
                25          25
                26          26
                27          27
                28          28
                29          29
                30          30
                31          31
                32          32
                33          33
                34          34
                35          35
                36          36
                37          37
                38          38
                39          39
                40          40
                41          41
                42          42
                43          43
                44          44
                45          45
                46          46
                47          47
                48          48
                49          49
                50          50
                51          51
                52          52
                53          53
                54          54
                55          55
                56          56
                57          57
                58          58
                59          59
                60          60
                61          61
                62          62
                63          63
                64          64
                65          65
                66          66
                67          67
                68          68
                69          69
                70          70
                71          71
                72          72
                73          73
                74          74
                75          75
                76          76
                77          77
                78          78
                79          79
                80          80
                81          81
                82          82
                83          83
                84          84
                85          85
                86          86
                87          87
                88          88
                89          89
                90          90
                91          91
                92          92
                93          93
                94          94
                95          95
                96          96
                97          97
                98          98
                99          99
               100         100
               101         101
               102         102
               103         103
               104         104
               105         105
               106         106
               107         107
               108         108
               109         109
               110         110
               111         111
               112         112
               113         113
               114         114
               115         115
               116         116
               117         117
               118         118
               119         119
               120         120
               121         121
               122         122
               123         123
               124         124
               125         125
               126         126
               127         127
               128         128
               129         129
               130         130
               131         131
               132         132
               133         133
               134         134
               135         135
               136         136
               137         137
               138         138
               139         139
               140         140
               141         141
               142         142
               143         143
               144         144
               145         145
               146         146
               147         147
               148         148
               149         149
               150         150
               151         151
               152         152
               153         153
               154         154
               155         155
               156         156

----------------------------------------------------------------------------------------

 
 

Automatic generation of k-mesh.
 generate k-points for:    1    1    4
Space group operators:
 irot       det(A)        alpha          n_x          n_y          n_z        tau_x        tau_y        tau_z
    1     1.000000     0.000000     1.000000     0.000000     0.000000     0.000000     0.000000     0.000000
 
 Subroutine IBZKPT returns following result:
 ===========================================
 
 Found      3 irreducible k-points:
 
 Following reciprocal coordinates:
            Coordinates               Weight
  0.000000  0.000000  0.000000      1.000000
 -0.000000 -0.000000  0.250000      2.000000
 -0.000000 -0.000000  0.500000      1.000000
 
 Following cartesian coordinates:
            Coordinates               Weight
  0.000000  0.000000  0.000000      1.000000
  0.000010 -0.006040  0.039935      2.000000
  0.000020 -0.012080  0.079870      1.000000
 


--------------------------------------------------------------------------------------------------------




 Dimension of arrays:
   k-points           NKPTS =      3   k-points in BZ     NKDIM =      3   number of bands    NBANDS=    384
   number of dos      NEDOS =    301   number of ions     NIONS =    156
   non local maximal  LDIM  =      6   non local SUM 2l+1 LMDIM =     18
   total plane-waves  NPLWV = 960000
   max r-space proj   IRMAX =   2586   max aug-charges    IRDMAX=   9044
   dimension x,y,z NGX =   150 NGY =  160 NGZ =   40
   dimension x,y,z NGXF=   300 NGYF=  320 NGZF=   80
   support grid    NGXF=   300 NGYF=  320 NGZF=   80
   ions per type =              80   4  32  24  16
   NGX,Y,Z   is equivalent  to a cutoff of  10.21, 10.40, 10.43 a.u.
   NGXF,Y,Z  is equivalent  to a cutoff of  20.42, 20.80, 20.86 a.u.

 SYSTEM =  flex_MOF                                
 POSCAR =  FeH_exp1                                

 Startparameter for this run:
   NWRITE =      2    write-flag & timer
   PREC   = normal    normal or accurate (medium, high low for compatibility)
   ISTART =      0    job   : 0-new  1-cont  2-samecut
   ICHARG =      2    charge: 1-file 2-atom 10-const
   ISPIN  =      2    spin polarized calculation?
   LNONCOLLINEAR =      F non collinear calculations
   LSORBIT =      F    spin-orbit coupling
   INIWAV =      1    electr: 0-lowe 1-rand  2-diag
   LASPH  =      F    aspherical Exc in radial PAW
   METAGGA=      F    non-selfconsistent MetaGGA calc.

 Electronic Relaxation 1
   ENCUT  =  600.0 eV  44.10 Ry    6.64 a.u.  48.78 51.07 12.74*2*pi/ulx,y,z
   ENINI  =  600.0     initial cutoff
   ENAUG  =  644.9 eV  augmentation charge cutoff
   NELM   =    300;   NELMIN=  3; NELMDL= -8     # of ELM steps 
   EDIFF  = 0.1E-05   stopping-criterion for ELM
   LREAL  =      T    real-space projection
   NLSPLINE    = F    spline interpolate recip. space projectors
   LCOMPAT=      F    compatible to vasp.4.4
   GGA_COMPAT  = T    GGA compatible to vasp.4.4-vasp.4.6
   LMAXPAW     = -100 max onsite density
   LMAXMIX     =    2 max onsite mixed and CHGCAR
   VOSKOWN=      0    Vosko Wilk Nusair interpolation
   ROPT   =   -0.00050  -0.00050  -0.00050  -0.00050
   ROPT   =   -0.00050
 Ionic relaxation
   EDIFFG = -.1E-01   stopping-criterion for IOM
   NSW    =   1000    number of steps for IOM
   NBLOCK =      1;   KBLOCK =   1000    inner block; outer block 
   IBRION =      2    ionic relax: 0-MD 1-quasi-New 2-CG
   NFREE  =      1    steps in history (QN), initial steepest desc. (CG)
   ISIF   =      4    stress and relaxation
   IWAVPR =     11    prediction:  0-non 1-charg 2-wave 3-comb
   ISYM   =      0    0-nonsym 1-usesym 2-fastsym
   LCORR  =      T    Harris-Foulkes like correction to forces

   POTIM  = 0.5000    time-step for ionic-motion
   TEIN   =    0.0    initial temperature
   TEBEG  =    0.0;   TEEND  =   0.0 temperature during run
   SMASS  =  -3.00    Nose mass-parameter (am)
   estimated Nose-frequenzy (Omega)   =  0.10E-29 period in steps = 0.13E+47 mass=  -0.136E-25a.u.
   SCALEE = 1.0000    scale energy and forces
   NPACO  =    256;   APACO  = 16.0  distance and # of slots for P.C.
   PSTRESS=    0.0 pullay stress

  Mass of Ions in am
   POMASS =  12.01 55.85  1.00 14.00 16.00
  Ionic Valenz
   ZVAL   =   4.00  8.00  1.00  5.00  6.00
  Atomic Wigner-Seitz radii
   RWIGS  =  -1.00 -1.00 -1.00 -1.00 -1.00
  virtual crystal weights 
   VCA    =   1.00  1.00  1.00  1.00  1.00
   NELECT =     600.0000    total number of electrons
   NUPDOWN=       0.0000    fix difference up-down

 DOS related values:
   EMIN   =  10.00;   EMAX   =-10.00  energy-range for DOS
   EFERMI =   0.00
   ISMEAR =     0;   SIGMA  =   0.05  broadening in eV -4-tet -1-fermi 0-gaus

 Electronic relaxation 2 (details)
   IALGO  =     38    algorithm
   LDIAG  =      T    sub-space diagonalisation (order eigenvalues)
   LSUBROT=      F    optimize rotation matrix (better conditioning)
   TURBO    =      0    0=normal 1=particle mesh
   IRESTART =      0    0=no restart 2=restart with 2 vectors
   NREBOOT  =      0    no. of reboots
   NMIN     =      0    reboot dimension
   EREF     =   0.00    reference energy to select bands
   IMIX   =      4    mixing-type and parameters
     AMIX     =   0.40;   BMIX     =  1.00
     AMIX_MAG =   1.60;   BMIX_MAG =  1.00
     AMIN     =   0.10
     WC   =   100.;   INIMIX=   1;  MIXPRE=   1;  MAXMIX= -45

 Intra band minimization:
   WEIMIN = 0.0010     energy-eigenvalue tresh-hold
   EBREAK =  0.65E-09  absolut break condition
   DEPER  =   0.30     relativ break condition  

   TIME   =   0.40     timestep for ELM

  volume/ion in A,a.u.               =      24.78       167.24
  Fermi-wavevector in a.u.,A,eV,Ry     =   0.879764  1.662514 10.530713  0.773986
  Thomas-Fermi vector in A             =   2.000033
 
 Write flags
   LWAVE        =      T    write WAVECAR
   LDOWNSAMPLE  =      F    k-point downsampling of WAVECAR
   LCHARG       =      T    write CHGCAR
   LVTOT        =      F    write LOCPOT, total local potential
   LVHAR        =      F    write LOCPOT, Hartree potential only
   LELF         =      F    write electronic localiz. function (ELF)
   LORBIT       =     11    0 simple, 1 ext, 2 COOP (PROOUT), +10 PAW based schemes


 Dipole corrections
   LMONO  =      F    monopole corrections only (constant potential shift)
   LDIPOL =      F    correct potential (dipole corrections)
   IDIPOL =      0    1-x, 2-y, 3-z, 4-all directions 
   EPSILON=  1.0000000 bulk dielectric constant

 Exchange correlation treatment:
   GGA     =    PE    GGA type
   LEXCH   =     8    internal setting for exchange type
   VOSKOWN=      0    Vosko Wilk Nusair interpolation
   LHFCALC =     F    Hartree Fock is set to
   LHFONE  =     F    Hartree Fock one center treatment
   AEXX    =    0.0000 exact exchange contribution

 Linear response parameters
   LEPSILON=     F    determine dielectric tensor
   LRPA    =     F    only Hartree local field effects (RPA)
   LNABLA  =     F    use nabla operator in PAW spheres
   LVEL    =     F    velocity operator in full k-point grid
   LINTERFAST=   F  fast interpolation
   KINTER  =     0    interpolate to denser k-point grid
   CSHIFT  =0.1000    complex shift for real part using Kramers Kronig
   OMEGAMAX=  -1.0    maximum frequency
   DEG_THRESHOLD= 0.2000000E-02 threshold for treating states as degnerate
   RTIME   =   -0.100 relaxation time in fs
  (WPLASMAI=    0.000 imaginary part of plasma frequency in eV, 0.658/RTIME)
   DFIELD  = 0.0000000 0.0000000 0.0000000 field for delta impulse in time
 
 Orbital magnetization related:
   ORBITALMAG=     F  switch on orbital magnetization
   LCHIMAG   =     F  perturbation theory with respect to B field
   DQ        =  0.001000  dq finite difference perturbation B field
   LLRAUG    =     F  two centre corrections for induced B field



--------------------------------------------------------------------------------------------------------


 conjugate gradient relaxation of ions
 charge density and potential will be updated during run
 spin polarized calculation
 Variant of blocked Davidson
 Davidson routine will perform the subspace rotation
 perform sub-space diagonalisation
    after iterative eigenvector-optimisation
 modified Broyden-mixing scheme, WC =      100.0
 initial mixing is a Kerker type mixing with AMIX =  0.4000 and BMIX =      1.0000
 Hartree-type preconditioning will be used
 using additional bands           84
 real space projection scheme for non local part
 use partial core corrections
 calculate Harris-corrections to forces 
   (improved forces if not selfconsistent)
 use gradient corrections 
 use of overlap-Matrix (Vanderbilt PP)
 Gauss-broadening in eV      SIGMA  =   0.05


--------------------------------------------------------------------------------------------------------


  energy-cutoff  :      600.00
  volume of cell :     3866.13
      direct lattice vectors                 reciprocal lattice vectors
    24.424755440  0.001254373 -0.005811139     0.040942071  0.000000115  0.000010631
    -0.001063973 25.284912226  3.824110872    -0.000002947  0.040112859 -0.003726389
    -0.001650301  0.589840173  6.349358860     0.000039246 -0.024159293  0.159740567

  length of vectors
    24.424756164 25.572458063  6.376697584     0.040942072  0.040285574  0.161557178


 
 k-points in units of 2pi/SCALE and weight: read from INCAR                         
   0.00000000  0.00000000  0.00000000       0.250
   0.00000981 -0.00603982  0.03993514       0.500
   0.00001962 -0.01207965  0.07987028       0.250
 
 k-points in reciprocal lattice and weights: read from INCAR                         
   0.00000000  0.00000000  0.00000000       0.250
  -0.00000000 -0.00000000  0.25000000       0.500
  -0.00000000 -0.00000000  0.50000000       0.250
 
 position of ions in fractional coordinates (direct lattice) 
   0.89748820  0.97117072  0.08726054
   0.93239543  0.98341690  0.39558726
   0.89699235  0.81084833  0.91927047
   0.60232480  0.47109528  0.59024508
   0.56853191  0.29775047  0.11595967
   0.06745459  0.79743907  0.11114524
   0.56765447  0.48337123  0.89878247
   0.60299329  0.31044378  0.42430209
   0.43168065  0.48297366  0.39791839
   0.10213738  0.80955574  0.42001177
   0.06841324  0.98302085  0.89520434
   0.43244387  0.29742274  0.61449619
   0.93153631  0.79810823  0.61128139
   0.10301847  0.97044590  0.58707024
   0.39780103  0.30942029  0.92348467
   0.39705515  0.47019906  0.08998821
   0.82004235  0.03584842  0.43952866
   0.84511685  0.08390461  0.05869536
   0.84422267  0.69820444  0.95074600
   0.65457153  0.58385627  0.55951279
   0.65609452  0.19778999  0.45492199
   0.17963215  0.74450038  0.06914947
   0.67991977  0.53626017  0.94070217
   0.68110966  0.24575283  0.07392556
   0.31896431  0.53509391  0.43958764
   0.15441213  0.69678864  0.45020204
   0.15592717  0.08300172  0.55705182
   0.34541064  0.19672073  0.95211413
   0.81885964  0.74585069  0.56969172
   0.18103859  0.03507837  0.93815030
   0.32027418  0.24468276  0.57117598
   0.34423172  0.58285410  0.05860538
   0.77775721  0.07729546  0.43811140
   0.80377776  0.12546878  0.06861827
   0.80269358  0.65670330  0.94221979
   0.69598578  0.62546888  0.56807723
   0.69755836  0.15631189  0.44516665
   0.22202165  0.70307850  0.07163265
   0.72229524  0.57771850  0.93785461
   0.72353099  0.20441428  0.07563292
   0.27645984  0.57642728  0.43678079
   0.19591425  0.65528296  0.44138915
   0.19747353  0.12443343  0.56647487
   0.30395885  0.15521990  0.94246290
   0.77636745  0.70448353  0.57258562
   0.22351639  0.07638704  0.93616158
   0.27790261  0.20328656  0.57285424
   0.30256888  0.62425177  0.06701314
   0.74453955  0.07350844  0.61878761
   0.79665278  0.16908173  0.89155087
   0.79563816  0.61332286  0.12012251
   0.70301834  0.66889176  0.39024258
   0.70474250  0.11274583  0.62234755
   0.25532162  0.70672325  0.89130912
   0.75570529  0.57411852  0.11795533
   0.75679572  0.20826669  0.89503339
   0.24309117  0.57274361  0.61692333
   0.20309670  0.61189178  0.61924319
   0.20469439  0.16792028  0.38903288
   0.29681056  0.11168063  0.11975432
   0.74292314  0.70812626  0.39252426
   0.25686274  0.07255047  0.11661452
   0.24462829  0.20706409  0.39222866
   0.29532257  0.66758869  0.88897804
   0.89110591  0.00123879  0.24269297
   0.89032552  0.78058053  0.76465652
   0.60875913  0.50127390  0.74528425
   0.60970394  0.28018653  0.26968762
   0.10852674  0.77941480  0.26480989
   0.39043991  0.50049729  0.24448744
   0.10965992  0.00060848  0.74206128
   0.39135668  0.27939101  0.76790370
   0.77095587  0.12088679  0.25512465
   0.76966254  0.66108479  0.75629867
   0.72899053  0.62110608  0.75406918
   0.73036481  0.16084865  0.25866795
   0.22886529  0.65970121  0.25536211
   0.26960911  0.61980671  0.25303618
   0.23036277  0.11988370  0.75289018
   0.27105266  0.15978361  0.75608079
   0.98549260  0.89071537  0.00298619
   0.01455191  0.89045264  0.50301226
   0.51447382  0.39048199  0.50686681
   0.48560064  0.39019019  0.00705358
   0.32271673  0.10916554  0.26101091
   0.74974120  0.54031559  0.25710338
   0.75074275  0.24222762  0.75657506
   0.75054972  0.03953531  0.75725280
   0.74886074  0.74195229  0.25344281
   0.67705894  0.67124220  0.24924131
   0.17717681  0.60949987  0.76027814
   0.17883647  0.17041031  0.24765522
   0.82163148  0.61096732  0.26102530
   0.25069426  0.24094998  0.25350894
   0.24916620  0.53896097  0.75606678
   0.24923348  0.74049575  0.75214857
   0.32122200  0.66997749  0.74788409
   0.67895289  0.11027758  0.76379783
   0.82249127  0.17159736  0.75019862
   0.25080843  0.03864651  0.25529336
   0.55812927  0.49596802  0.04540244
   0.44195452  0.28497170  0.46757517
   0.37424132  0.47164632  0.94230321
   0.12491578  0.80774258  0.56808254
   0.05897047  0.99568403  0.04173515
   0.37501222  0.30757408  0.07145372
   0.87456390  0.97288424  0.93961372
   0.94094760  0.78534889  0.46493538
   0.12584046  0.97198781  0.43941801
   0.62510942  0.47283885  0.44234772
   0.55916014  0.28499486  0.96952824
   0.94200587  0.99595950  0.54226827
   0.62572618  0.30898791  0.57218541
   0.44113193  0.49574677  0.54424471
   0.05790900  0.78490441  0.96440259
   0.87421159  0.80939936  0.06695451
   0.94007643  0.93712841  0.14596989
   0.96161192  0.94483127  0.33514285
   0.93966058  0.84471671  0.85964705
   0.55988968  0.43691566  0.64974359
   0.53907608  0.33636638  0.17515071
   0.03836952  0.83621215  0.17090891
   0.53849642  0.44462382  0.83906573
   0.56034227  0.34434225  0.36431625
   0.46108704  0.44433821  0.33864574
   0.05977483  0.84383422  0.36041311
   0.03896837  0.94448897  0.83528281
   0.46158866  0.33608910  0.67475282
   0.96098409  0.83671031  0.67069995
   0.06032390  0.93657920  0.64622950
   0.44021771  0.34363996  0.86433412
   0.43972201  0.43631364  0.14971603
   0.85101090  0.04127313  0.24693381
   0.85006213  0.74060527  0.76175308
   0.64879695  0.54142771  0.74850578
   0.65003206  0.24028947  0.26630859
   0.14855065  0.73925542  0.26136710
   0.35014273  0.54043270  0.24753991
   0.14995532  0.04050815  0.74571217
   0.35129721  0.23930631  0.76374154
   0.82835822  0.99810182  0.59697386
   0.87320396  0.08524805  0.89746795
   0.87250351  0.69695943  0.11148319
   0.62634052  0.58500015  0.39873832
   0.62802163  0.19643310  0.61618311
   0.17136615  0.78209701  0.91113826
   0.67168473  0.49871744  0.09893424
   0.67274501  0.28342851  0.91628905
   0.32728396  0.49753372  0.59771239
   0.12621894  0.69553551  0.61107068
   0.12774338  0.08436857  0.39595822
   0.37356547  0.19536170  0.11328804
   0.82714573  0.78336639  0.41143475
   0.17265586  0.99745636  0.09594297
   0.32858297  0.28236147  0.41353022
   0.37255560  0.58418843  0.89801300
 
 position of ions in cartesian coordinates  (Angst):
  21.91975258 24.60856202  4.26269757
  22.77183124 25.10011283  6.26700248
  21.90643909 21.04557663  8.93233946
  14.71016063 12.26050858  5.54569819
  13.88574469  7.59770540  1.87159655
   1.64652988 20.22881938  3.75480446
  13.86282401 12.75284921  7.55185889
  14.72693317  8.10057061  3.87771358
  10.54252374 12.44719631  4.37096291
   2.49312593 20.71741380  5.76204286
   1.66845347 25.38370923  9.44275674
  10.56100528  7.88330493  5.03652138
  22.75068864 20.54182345  6.92788598
   2.51419945 24.88404621  7.43801367
   9.71433952  8.36887227  7.04448140
   9.69732618 11.94251869  2.36715347
  20.02857040  1.16670448  2.92304814
  20.64158633  2.15720167  0.68862735
  20.61762026 18.21588506  8.70173284
  15.98620485 15.09359861  5.78147479
  16.02398689  5.27025687  3.64102117
   4.38656519 18.86563918  3.28506292
  16.60475102 14.11500817  8.01962292
  16.63555343  6.25829736  1.40520793
   7.78933037 13.78948903  4.83550456
   3.76999423 17.88398046  5.52219400
   3.80747538  2.42745834  3.85342358
   8.43478987  5.53609485  6.79558896
  19.99871276 19.19582356  6.46463441
   4.42023779  1.44053930  6.08974443
   7.82141560  6.52408628  4.56043412
   8.40705871 14.77241448  2.59900492
  18.99572440  2.21380025  3.07279328
  19.63182842  3.21394910  0.91081766
  19.60334076 17.16145129  8.48913326
  16.99767959 16.15087346  5.99474409
  17.03679132  4.21578462  3.42022319
   5.42195829 17.81980857  3.14218137
  17.63972219 15.16165183  8.15983770
  17.67172511  5.21411602  1.25771891
   6.75112986 14.83289087  4.97599330
   4.78373199 16.82936687  5.30727431
   4.82217552  3.48066564  4.07145194
   7.42240020  4.48100534  6.57584694
  18.96089072 18.15151205  6.32506310
   5.45770705  2.48390559  6.23483946
   6.78654168  5.47832394  4.41303257
   7.38939617 15.82405780  2.81094018
  18.18409709  2.22457408  4.20568238
  19.45639807  4.80208857  6.30273426
  19.43241675 15.57966575  3.10349195
  17.16969537 17.14393209  5.03162111
  17.21201610  3.21873793  4.37856509
   6.23394535 18.39548550  8.36034582
  18.45711133 14.58705923  2.94004207
  18.48285163  5.79488101  6.47492528
   5.93581498 14.84596308  6.10589006
   4.95891415 15.83713928  6.27055902
   4.99878963  4.47557360  3.11106561
   7.24920899  2.89484310  1.18571746
  18.14431472 18.13736880  5.19591348
   6.27353990  1.90353841  1.01637581
   5.97411862  5.46725649  3.28081499
   7.21100418 17.40464671  8.19565756
  21.76464201  0.17559064  1.54050368
  21.74389076 20.18905213  7.83493132
  14.86702955 13.11502875  6.64546656
  14.89112651  7.24432923  2.78026477
   2.64947285 19.86376643  4.66131099
   9.53546324 12.79972844  3.46402673
   2.67719146  0.45322035  4.71330299
   9.55722671  7.51780846  5.94184411
  18.82985903  3.20806166  2.07768231
  18.79686776 17.16253155  7.32560055
  17.80351013 16.15030733  7.15879805
  17.83838395  4.22053284  2.25323444
   5.58885544 16.83139699  4.14282627
   6.58405958 15.82134732  3.97526034
   5.62518424  3.47562269  5.23747980
   6.61897718  4.48642134  5.41008340
  24.06946303 22.52465741  3.41942785
   0.35364925 22.81173203  6.59891041
  12.56464519 10.17291865  4.70853600
  11.86025017  9.87069443  1.53409441
   7.88173021  2.91460059  2.07283768
  18.31124635 13.81442252  3.69431150
  18.33520185  6.57190427  5.72570917
  18.33070170  1.44724633  4.95489564
  18.28953277 18.91062861  4.44215543
  16.53587350 17.12016194  4.14549262
   4.32559702 15.85981545  7.15704421
   4.36744710  4.45511097  2.22308054
  20.06706713 15.60324888  3.98897548
   6.12247117  6.24224323  2.52958182
   6.08400225 14.07385198  6.86013790
   6.08543754 19.16733008  7.60595069
   7.84382172 17.38185701  7.30878602
  16.58188051  3.23972922  5.26739475
  20.08772759  4.78235320  5.41470797
   6.12547201  1.12807040  1.76728019
  13.63156821 12.56798802  2.18166968
  10.79355633  7.48183340  4.05599764
   9.13869592 12.48181359  7.78447427
   3.04924035 20.75893485  6.69513119
   1.43921113 25.20047427  4.07225485
   9.15913670  7.81960023  1.62770347
  21.35842349 25.15461152  9.68127965
  22.98081217 20.13289552  5.94983480
   3.07186321 24.83597061  6.50628050
  15.26691163 12.21738733  4.61317997
  13.65544642  7.77863818  7.24248534
  23.00630847 25.50378172  7.24624124
  15.28193582  8.15101498  4.81097834
  10.77311379 12.85648440  5.34883213
   1.41198651 20.41515521  9.12456309
  21.35143269 20.50618070  3.51527092
  22.95989882 23.78248779  4.50503528
  23.48557773 24.08886279  5.73549369
  22.94866254 21.86682090  8.68303747
  13.67363125 11.43132139  5.79301556
  13.16615456  8.60898147  2.39526438
   0.93599428 21.24440781  4.28270699
  13.15078565 11.73786439  7.02469095
  13.68525519  8.92225474  3.62672132
  11.26090660 11.43537795  3.84670245
   1.45849296 21.54893540  5.51496043
   0.94940943 24.37405292  8.91511443
  11.27271907  8.89655879  5.56680745
  23.46980441 21.55295805  7.45260329
   1.47133351 24.06257076  7.68437518
  10.75041794  9.19927733  6.79952662
  10.73939132 11.12101216  2.61655722
  20.78528157  1.19030635  1.72075906
  20.76051444 19.17651807  7.66386052
  15.84489552 14.13226463  6.81924112
  15.87617891  6.23359292  2.60600491
   3.62709536 18.84635948  4.48564492
   8.55116704 13.81124156  3.63635953
   3.66134834  1.46428415  4.88883045
   8.57883334  6.50176513  5.76236155
  20.23039984 25.59007520  7.60243957
  21.32622139  2.68594746  6.01926978
  21.30975930 17.68940967  3.36802668
  15.29693347 15.02765496  4.76519833
  15.33804895  5.33103107  4.65990013
   4.18324053 20.31289523  8.77497362
  16.40504137 12.66922473  2.53141652
  16.42981864  7.70777284  6.89780059
   7.99231498 12.93306174  5.69581266
   3.08111838 17.94714668  6.53897849
   3.11935757  2.36696408  2.83597327
   9.12385054  5.00699394  1.46422038
  20.20131968 20.05106879  5.60322018
   4.21585757 25.27740401  4.42255670
   8.02457571  7.38381376  3.70352390
   9.09747576 15.30130474  7.93364314
 


--------------------------------------------------------------------------------------------------------


 k-point  1 :   0.0000 0.0000 0.0000  plane waves:  129097
 k-point  2 :  -0.0000-0.0000 0.2500  plane waves:  129004
 k-point  3 :  -0.0000-0.0000 0.5000  plane waves:  128976

 maximum and minimum number of plane-waves per node :     32522    32126

 maximum number of plane-waves:    129097
 maximum index in each direction: 
   IXMAX=   48   IYMAX=   51   IZMAX=   12
   IXMIN=  -48   IYMIN=  -51   IZMIN=  -13


 real space projection operators:
  total allocation   :      12727.52 KBytes
  max/ min on nodes  :       3219.53       3143.13


 parallel 3D FFT for wavefunctions:
    minimum data exchange during FFTs selected (reduces bandwidth)
 parallel 3D FFT for charge:
    minimum data exchange during FFTs selected (reduces bandwidth)


 total amount of memory used by VASP MPI-rank0   113574. kBytes
=======================================================================

   base      :      30000. kBytes
   nonlr-proj:       7001. kBytes
   fftplans  :      10027. kBytes
   grid      :      27806. kBytes
   one-center:       1213. kBytes
   wavefun   :      37527. kBytes
 
     INWAV:  cpu time    0.0002: real time    0.0001
 Broyden mixing: mesh for mixing (old mesh)
   NGX = 97   NGY =103   NGZ = 25
  (NGX  =300   NGY  =320   NGZ  = 80)
  gives a total of 249775 points

 initial charge density was supplied:
 charge density of overlapping atoms calculated
 number of electron     600.0000000 magnetization      -0.0000000
 keeping initial charge density in first step


--------------------------------------------------------------------------------------------------------


 Maximum index for non-local projection operator          729
 Maximum index for augmentation-charges          457 (set IRDMAX)


--------------------------------------------------------------------------------------------------------


 First call to EWALD:  gamma=   0.113
 Maximum number of real-space cells 2x 2x 6
 Maximum number of reciprocal cells 4x 4x 1

    FEWALD:  cpu time    0.0154: real time    0.0157


--------------------------------------- Iteration      1(   1)  ---------------------------------------


    POTLOK:  cpu time    0.4222: real time    0.4648
    SETDIJ:  cpu time    0.0805: real time    0.0811
     EDDAV:  cpu time   17.0396: real time   17.1488
       DOS:  cpu time    0.0056: real time    0.0062
    --------------------------------------------
      LOOP:  cpu time   17.5480: real time   17.7009

 eigenvalue-minimisations  :  4608
 total energy-change (2. order) : 0.5557939E+04  (-0.2672744E+05)
 number of electron     600.0000000 magnetization      -0.0000000
 augmentation part      600.0000000 magnetization      -0.0000000

 Free energy of the ion-electron system (eV)
  ---------------------------------------------------
  alpha Z        PSCENC =       458.47188012
  Ewald energy   TEWEN  =     42023.35504787
  -Hartree energ DENC   =    -65129.05796328
  -exchange      EXHF   =         0.00000000
  -V(xc)+E(xc)   XCENC  =      2064.45908776
  PAW double counting   =     21422.65208726   -21556.96843230
  entropy T*S    EENTRO =        -0.04986865
  eigenvalues    EBANDS =     -1540.52660358
  atomic energy  EATOM  =     27815.60422923
  Solvation  Ediel_sol  =         0.00000000
  ---------------------------------------------------
  free energy    TOTEN  =      5557.93946442 eV

  energy without entropy =     5557.98933307  energy(sigma->0) =     5557.96439875


--------------------------------------------------------------------------------------------------------




--------------------------------------- Iteration      1(   2)  ---------------------------------------


     EDDAV:  cpu time   22.8706: real time   22.8856
       DOS:  cpu time    0.0045: real time    0.0045
    --------------------------------------------
      LOOP:  cpu time   22.8750: real time   22.8901

 eigenvalue-minimisations  :  6624
 total energy-change (2. order) :-0.5833207E+04  (-0.5628104E+04)
 number of electron     600.0000000 magnetization      -0.0000000
 augmentation part      600.0000000 magnetization      -0.0000000

 Free energy of the ion-electron system (eV)
  ---------------------------------------------------
  alpha Z        PSCENC =       458.47188012
  Ewald energy   TEWEN  =     42023.35504787
  -Hartree energ DENC   =    -65129.05796328
  -exchange      EXHF   =         0.00000000
  -V(xc)+E(xc)   XCENC  =      2064.45908776
  PAW double counting   =     21422.65208726   -21556.96843230
  entropy T*S    EENTRO =        -0.02488644
  eigenvalues    EBANDS =     -7373.75845187
  atomic energy  EATOM  =     27815.60422923
  Solvation  Ediel_sol  =         0.00000000
  ---------------------------------------------------
  free energy    TOTEN  =      -275.26740166 eV

  energy without entropy =     -275.24251522  energy(sigma->0) =     -275.25495844


--------------------------------------------------------------------------------------------------------




--------------------------------------- Iteration      1(   3)  ---------------------------------------


     EDDAV:  cpu time   19.0124: real time   19.0147
       DOS:  cpu time    0.0054: real time    0.0054
    --------------------------------------------
      LOOP:  cpu time   19.0178: real time   19.0201

 eigenvalue-minimisations  :  5472
 total energy-change (2. order) :-0.9820478E+03  (-0.9730418E+03)
 number of electron     600.0000000 magnetization      -0.0000000
 augmentation part      600.0000000 magnetization      -0.0000000

 Free energy of the ion-electron system (eV)
  ---------------------------------------------------
  alpha Z        PSCENC =       458.47188012
  Ewald energy   TEWEN  =     42023.35504787
  -Hartree energ DENC   =    -65129.05796328
  -exchange      EXHF   =         0.00000000
  -V(xc)+E(xc)   XCENC  =      2064.45908776
  PAW double counting   =     21422.65208726   -21556.96843230
  entropy T*S    EENTRO =        -0.04921135
  eigenvalues    EBANDS =     -8355.78190623
  atomic energy  EATOM  =     27815.60422923
  Solvation  Ediel_sol  =         0.00000000
  ---------------------------------------------------
  free energy    TOTEN  =     -1257.31518092 eV

  energy without entropy =    -1257.26596958  energy(sigma->0) =    -1257.29057525


--------------------------------------------------------------------------------------------------------




--------------------------------------- Iteration      1(   4)  ---------------------------------------


     EDDAV:  cpu time   22.8271: real time   22.8327
       DOS:  cpu time    0.0046: real time    0.0046
    --------------------------------------------
      LOOP:  cpu time   22.8317: real time   22.8373

 eigenvalue-minimisations  :  6880
 total energy-change (2. order) :-0.4258892E+02  (-0.4224787E+02)
 number of electron     600.0000000 magnetization      -0.0000000
 augmentation part      600.0000000 magnetization      -0.0000000

 Free energy of the ion-electron system (eV)
  ---------------------------------------------------
  alpha Z        PSCENC =       458.47188012
  Ewald energy   TEWEN  =     42023.35504787
  -Hartree energ DENC   =    -65129.05796328
  -exchange      EXHF   =         0.00000000
  -V(xc)+E(xc)   XCENC  =      2064.45908776
  PAW double counting   =     21422.65208726   -21556.96843230
  entropy T*S    EENTRO =        -0.04335788
  eigenvalues    EBANDS =     -8398.37667555
  atomic energy  EATOM  =     27815.60422923
  Solvation  Ediel_sol  =         0.00000000
  ---------------------------------------------------
  free energy    TOTEN  =     -1299.90409678 eV

  energy without entropy =    -1299.86073890  energy(sigma->0) =    -1299.88241784


--------------------------------------------------------------------------------------------------------




--------------------------------------- Iteration      1(   5)  ---------------------------------------


     EDDAV:  cpu time   20.8316: real time   20.8332
       DOS:  cpu time    0.0046: real time    0.0046
    --------------------------------------------
      LOOP:  cpu time   20.8362: real time   20.8378

 eigenvalue-minimisations  :  6016
 total energy-change (2. order) :-0.7607804E+00  (-0.7569372E+00)
 number of electron     600.0000000 magnetization      -0.0000000
 augmentation part      600.0000000 magnetization      -0.0000000

 Free energy of the ion-electron system (eV)
  ---------------------------------------------------
  alpha Z        PSCENC =       458.47188012
  Ewald energy   TEWEN  =     42023.35504787
  -Hartree energ DENC   =    -65129.05796328
  -exchange      EXHF   =         0.00000000
  -V(xc)+E(xc)   XCENC  =      2064.45908776
  PAW double counting   =     21422.65208726   -21556.96843230
  entropy T*S    EENTRO =        -0.04377622
  eigenvalues    EBANDS =     -8399.13703762
  atomic energy  EATOM  =     27815.60422923
  Solvation  Ediel_sol  =         0.00000000
  ---------------------------------------------------
  free energy    TOTEN  =     -1300.66487719 eV

  energy without entropy =    -1300.62110097  energy(sigma->0) =    -1300.64298908


--------------------------------------------------------------------------------------------------------




--------------------------------------- Iteration      1(   6)  ---------------------------------------


     EDDAV:  cpu time   24.4064: real time   24.4096
       DOS:  cpu time    0.0049: real time    0.0049
    --------------------------------------------
      LOOP:  cpu time   24.4112: real time   24.4144

 eigenvalue-minimisations  :  7168
 total energy-change (2. order) :-0.4292877E-01  (-0.4287635E-01)
 number of electron     600.0000000 magnetization      -0.0000000
 augmentation part      600.0000000 magnetization      -0.0000000

 Free energy of the ion-electron system (eV)
  ---------------------------------------------------
  alpha Z        PSCENC =       458.47188012
  Ewald energy   TEWEN  =     42023.35504787
  -Hartree energ DENC   =    -65129.05796328
  -exchange      EXHF   =         0.00000000
  -V(xc)+E(xc)   XCENC  =      2064.45908776
  PAW double counting   =     21422.65208726   -21556.96843230
  entropy T*S    EENTRO =        -0.04382906
  eigenvalues    EBANDS =     -8399.17991355
  atomic energy  EATOM  =     27815.60422923
  Solvation  Ediel_sol  =         0.00000000
  ---------------------------------------------------
  free energy    TOTEN  =     -1300.70780596 eV

  energy without entropy =    -1300.66397690  energy(sigma->0) =    -1300.68589143


--------------------------------------------------------------------------------------------------------




--------------------------------------- Iteration      1(   7)  ---------------------------------------


     EDDAV:  cpu time   21.1505: real time   21.1564
       DOS:  cpu time    0.0036: real time    0.0036
    --------------------------------------------
      LOOP:  cpu time   21.1541: real time   21.1600

 eigenvalue-minimisations  :  6048
 total energy-change (2. order) :-0.7682576E-03  (-0.7672369E-03)
 number of electron     600.0000000 magnetization      -0.0000000
 augmentation part      600.0000000 magnetization      -0.0000000

 Free energy of the ion-electron system (eV)
  ---------------------------------------------------
  alpha Z        PSCENC =       458.47188012
  Ewald energy   TEWEN  =     42023.35504787
  -Hartree energ DENC   =    -65129.05796328
  -exchange      EXHF   =         0.00000000
  -V(xc)+E(xc)   XCENC  =      2064.45908776
  PAW double counting   =     21422.65208726   -21556.96843230
  entropy T*S    EENTRO =        -0.04383036
  eigenvalues    EBANDS =     -8399.18068051
  atomic energy  EATOM  =     27815.60422923
  Solvation  Ediel_sol  =         0.00000000
  ---------------------------------------------------
  free energy    TOTEN  =     -1300.70857422 eV

  energy without entropy =    -1300.66474386  energy(sigma->0) =    -1300.68665904


--------------------------------------------------------------------------------------------------------




--------------------------------------- Iteration      1(   8)  ---------------------------------------


     EDDAV:  cpu time   24.3212: real time   24.3241
       DOS:  cpu time    0.0038: real time    0.0038
    CHARGE:  cpu time    0.8990: real time    0.9019
    MIXING:  cpu time    0.0142: real time    0.0158
    --------------------------------------------
      LOOP:  cpu time   25.2383: real time   25.2457

 eigenvalue-minimisations  :  7296
 total energy-change (2. order) :-0.3303243E-04  (-0.3302053E-04)
 number of electron     600.0000040 magnetization       0.0000000
 augmentation part       32.5695064 magnetization      -0.0001758

 Broyden mixing:
  rms(total) = 0.95265E+01    rms(broyden)= 0.95260E+01
  rms(prec ) = 0.10484E+02
  weight for this iteration     100.00

 Free energy of the ion-electron system (eV)
  ---------------------------------------------------
  alpha Z        PSCENC =       458.47188012
  Ewald energy   TEWEN  =     42023.35504787
  -Hartree energ DENC   =    -65129.05796328
  -exchange      EXHF   =         0.00000000
  -V(xc)+E(xc)   XCENC  =      2064.45908776
  PAW double counting   =     21422.65208726   -21556.96843230
  entropy T*S    EENTRO =        -0.04383045
  eigenvalues    EBANDS =     -8399.18071345
  atomic energy  EATOM  =     27815.60422923
  Solvation  Ediel_sol  =         0.00000000
  ---------------------------------------------------
  free energy    TOTEN  =     -1300.70860725 eV

  energy without entropy =    -1300.66477680  energy(sigma->0) =    -1300.68669202


--------------------------------------------------------------------------------------------------------




--------------------------------------- Iteration      1(   9)  ---------------------------------------


    POTLOK:  cpu time    0.3590: real time    0.3591
    SETDIJ:  cpu time    0.0610: real time    0.0609
     EDDAV:  cpu time   25.7615: real time   25.7795
       DOS:  cpu time    0.0060: real time    0.0060
    CHARGE:  cpu time    0.8844: real time    0.8904
    MIXING:  cpu time    0.0124: real time    0.0158
    --------------------------------------------
      LOOP:  cpu time   27.0842: real time   27.1118

 eigenvalue-minimisations  :  7648
 total energy-change (2. order) :-0.3234031E+03  (-0.3998280E+03)
 number of electron     600.0000017 magnetization       0.0000000
 augmentation part       55.7503751 magnetization      -0.0278842

 Broyden mixing:
  rms(total) = 0.33035E+02    rms(broyden)= 0.33035E+02
  rms(prec ) = 0.33522E+02
  weight for this iteration     100.00

 eigenvalues of (default mixing * dielectric matrix)
  average eigenvalue GAMMA=   0.0862
  0.0862

 Free energy of the ion-electron system (eV)
  ---------------------------------------------------
  alpha Z        PSCENC =       458.47188012
[...]
     15.26691     12.21739      4.61318        -0.001455     -0.000233      0.000860
     13.65545      7.77864      7.24249         0.001357     -0.000939     -0.001675
     23.00631     25.50378      7.24624        -0.000781      0.001087      0.001488
     15.28194      8.15101      4.81098         0.000635     -0.004780     -0.002689
     10.77311     12.85648      5.34883        -0.002033      0.002151      0.000201
      1.41199     20.41516      9.12456         0.000181     -0.000791     -0.001695
     21.35143     20.50618      3.51527         0.001060     -0.003782     -0.003042
     22.95990     23.78249      4.50504         0.002739     -0.002158     -0.000774
     23.48558     24.08886      5.73549        -0.001037     -0.000504     -0.001883
     22.94866     21.86682      8.68304        -0.000892     -0.003416      0.000010
     13.67363     11.43132      5.79302         0.000668      0.000583     -0.002111
     13.16615      8.60898      2.39526         0.000871     -0.003281      0.000640
      0.93599     21.24441      4.28271         0.000162     -0.000482      0.001061
     13.15079     11.73786      7.02469         0.005735      0.003157     -0.002861
     13.68526      8.92225      3.62672        -0.000034     -0.001259      0.001375
     11.26091     11.43538      3.84670        -0.001207      0.002422     -0.000402
      1.45849     21.54894      5.51496         0.001007     -0.002954      0.000295
      0.94941     24.37405      8.91511         0.001615      0.002595      0.001703
     11.27272      8.89656      5.56681         0.000999      0.001386      0.000352
     23.46980     21.55296      7.45260        -0.001660     -0.002783      0.002293
      1.47133     24.06257      7.68438         0.001167     -0.001090     -0.001430
     10.75042      9.19928      6.79953         0.003511      0.002057      0.001954
     10.73939     11.12101      2.61656         0.001696     -0.000985     -0.002761
     20.78528      1.19031      1.72076        -0.004058      0.003061      0.004700
     20.76051     19.17652      7.66386        -0.003984     -0.001798     -0.006657
     15.84490     14.13226      6.81924         0.003518      0.002858      0.005580
     15.87618      6.23359      2.60600         0.000828     -0.000660     -0.001997
      3.62710     18.84636      4.48564        -0.001258     -0.000891      0.001673
      8.55117     13.81124      3.63636        -0.000711      0.001316      0.002208
      3.66135      1.46428      4.88883        -0.002791     -0.000503     -0.000386
      8.57883      6.50177      5.76236        -0.001334     -0.000905     -0.000365
     20.23040     25.59008      7.60244        -0.001440     -0.000718     -0.002214
     21.32622      2.68595      6.01927         0.000039      0.002520      0.000824
     21.30976     17.68941      3.36803        -0.001281     -0.000259      0.000196
     15.29693     15.02765      4.76520         0.002388      0.002656     -0.000848
     15.33805      5.33103      4.65990        -0.000033      0.000447     -0.001424
      4.18324     20.31290      8.77497        -0.001043      0.003573     -0.001561
     16.40504     12.66922      2.53142         0.000540      0.000117     -0.000725
     16.42982      7.70777      6.89780        -0.001801      0.001385     -0.001802
      7.99231     12.93306      5.69581        -0.000076      0.001073     -0.000223
      3.08112     17.94715      6.53898         0.000999     -0.001265     -0.001220
      3.11936      2.36696      2.83597        -0.001865     -0.000433     -0.001523
      9.12385      5.00699      1.46422        -0.000487     -0.000232     -0.000585
     20.20132     20.05107      5.60322         0.001408     -0.000680      0.001611
      4.21586     25.27740      4.42256        -0.001077     -0.001972     -0.000053
      8.02458      7.38381      3.70352        -0.000725      0.003417     -0.001447
      9.09748     15.30130      7.93364         0.002219      0.000426     -0.001410
 -----------------------------------------------------------------------------------
    total drift:                                0.004778      0.019889      0.014956


--------------------------------------------------------------------------------------------------------



  FREE ENERGIE OF THE ION-ELECTRON SYSTEM (eV)
  ---------------------------------------------------
  free  energy   TOTEN  =     -1185.68377924 eV

  energy  without entropy=    -1185.63543355  energy(sigma->0) =    -1185.65960640
 


--------------------------------------------------------------------------------------------------------


    POTLOK:  cpu time    0.4258: real time    0.4259


--------------------------------------------------------------------------------------------------------




--------------------------------------------------------------------------------------------------------


  
 reached required accuracy - stopping structural energy minimisation
 writing wavefunctions
     LOOP+:  cpu time 1998.4063: real time 2008.2435
    4ORBIT:  cpu time    0.0000: real time    0.0000
 


 total charge     
 
# of ion       s       p       d       tot
------------------------------------------
    1        0.868   1.765   0.000   2.633
    2        0.868   1.770   0.000   2.638
    3        0.868   1.765   0.000   2.634
    4        0.868   1.765   0.000   2.633
    5        0.868   1.770   0.000   2.638
    6        0.868   1.770   0.000   2.638
    7        0.868   1.769   0.000   2.638
    8        0.868   1.765   0.000   2.633
    9        0.868   1.770   0.000   2.638
   10        0.868   1.765   0.000   2.633
   11        0.868   1.770   0.000   2.638
   12        0.868   1.770   0.000   2.638
   13        0.868   1.770   0.000   2.638
   14        0.868   1.765   0.000   2.633
   15        0.868   1.765   0.000   2.633
   16        0.868   1.765   0.000   2.633
   17        0.862   1.715   0.000   2.577
   18        0.863   1.717   0.000   2.580
   19        0.863   1.717   0.000   2.580
   20        0.863   1.717   0.000   2.580
   21        0.863   1.717   0.000   2.580
   22        0.862   1.715   0.000   2.577
   23        0.862   1.715   0.000   2.577
   24        0.862   1.715   0.000   2.577
   25        0.862   1.714   0.000   2.577
   26        0.863   1.717   0.000   2.580
   27        0.863   1.717   0.000   2.580
   28        0.863   1.717   0.000   2.580
   29        0.862   1.714   0.000   2.577
   30        0.862   1.715   0.000   2.577
   31        0.862   1.715   0.000   2.577
   32        0.863   1.717   0.000   2.580
   33        0.865   1.785   0.000   2.650
   34        0.865   1.786   0.000   2.651
   35        0.865   1.787   0.000   2.652
   36        0.865   1.786   0.000   2.651
   37        0.865   1.786   0.000   2.651
   38        0.865   1.785   0.000   2.650
   39        0.865   1.785   0.000   2.650
   40        0.865   1.785   0.000   2.650
   41        0.865   1.785   0.000   2.650
   42        0.865   1.786   0.000   2.651
   43        0.865   1.786   0.000   2.651
   44        0.865   1.786   0.000   2.651
   45        0.865   1.785   0.000   2.650
   46        0.865   1.785   0.000   2.650
   47        0.865   1.785   0.000   2.650
   48        0.865   1.786   0.000   2.651
   49        0.870   1.767   0.000   2.636
   50        0.870   1.766   0.000   2.636
   51        0.870   1.767   0.000   2.637
   52        0.870   1.766   0.000   2.636
   53        0.870   1.766   0.000   2.636
   54        0.870   1.767   0.000   2.637
   55        0.870   1.767   0.000   2.637
   56        0.870   1.767   0.000   2.636
   57        0.870   1.767   0.000   2.636
   58        0.870   1.766   0.000   2.636
   59        0.870   1.766   0.000   2.636
   60        0.870   1.766   0.000   2.636
   61        0.870   1.767   0.000   2.636
   62        0.870   1.767   0.000   2.637
   63        0.870   1.767   0.000   2.636
   64        0.870   1.766   0.000   2.636
   65        0.847   1.789   0.000   2.635
   66        0.847   1.789   0.000   2.635
   67        0.847   1.789   0.000   2.635
   68        0.847   1.788   0.000   2.635
   69        0.847   1.788   0.000   2.635
   70        0.847   1.788   0.000   2.635
   71        0.847   1.789   0.000   2.635
   72        0.847   1.788   0.000   2.635
   73        0.865   1.790   0.000   2.655
   74        0.865   1.790   0.000   2.655
   75        0.865   1.790   0.000   2.655
   76        0.865   1.790   0.000   2.655
   77        0.865   1.790   0.000   2.656
   78        0.865   1.790   0.000   2.656
   79        0.865   1.790   0.000   2.655
   80        0.865   1.790   0.000   2.655
   81        0.389   0.502   6.052   6.944
   82        0.389   0.502   6.052   6.943
   83        0.389   0.503   6.052   6.944
   84        0.389   0.502   6.052   6.942
   85        0.638   0.048   0.000   0.686
   86        0.639   0.048   0.000   0.687
   87        0.639   0.048   0.000   0.687
   88        0.639   0.048   0.000   0.687
   89        0.639   0.048   0.000   0.687
   90        0.638   0.048   0.000   0.686
   91        0.638   0.048   0.000   0.686
   92        0.638   0.048   0.000   0.686
   93        0.638   0.048   0.000   0.686
   94        0.639   0.048   0.000   0.687
   95        0.639   0.048   0.000   0.687
   96        0.639   0.048   0.000   0.687
   97        0.638   0.048   0.000   0.686
   98        0.638   0.048   0.000   0.686
   99        0.638   0.048   0.000   0.686
  100        0.639   0.048   0.000   0.687
  101        0.637   0.049   0.000   0.685
  102        0.637   0.049   0.000   0.686
  103        0.629   0.050   0.000   0.679
  104        0.629   0.050   0.000   0.679
  105        0.637   0.049   0.000   0.686
  106        0.629   0.050   0.000   0.679
  107        0.629   0.050   0.000   0.679
  108        0.637   0.049   0.000   0.686
  109        0.629   0.050   0.000   0.679
  110        0.629   0.050   0.000   0.679
  111        0.637   0.049   0.000   0.686
  112        0.637   0.049   0.000   0.686
  113        0.629   0.050   0.000   0.679
  114        0.637   0.049   0.000   0.686
  115        0.637   0.049   0.000   0.686
  116        0.629   0.050   0.000   0.679
  117        1.237   2.609   0.000   3.846
  118        1.238   2.611   0.000   3.849
  119        1.237   2.609   0.000   3.846
  120        1.237   2.609   0.000   3.846
  121        1.238   2.610   0.000   3.848
  122        1.238   2.610   0.000   3.848
  123        1.238   2.610   0.000   3.848
  124        1.237   2.609   0.000   3.846
  125        1.238   2.611   0.000   3.848
  126        1.237   2.609   0.000   3.846
  127        1.238   2.611   0.000   3.848
  128        1.238   2.611   0.000   3.849
  129        1.238   2.610   0.000   3.848
  130        1.237   2.609   0.000   3.846
  131        1.237   2.609   0.000   3.846
  132        1.237   2.609   0.000   3.846
  133        1.210   2.723   0.000   3.933
  134        1.210   2.723   0.000   3.933
  135        1.210   2.723   0.000   3.933
  136        1.210   2.722   0.000   3.933
  137        1.210   2.722   0.000   3.933
  138        1.210   2.723   0.000   3.933
  139        1.210   2.723   0.000   3.933
  140        1.210   2.722   0.000   3.933
  141        1.584   3.542   0.000   5.125
  142        1.585   3.537   0.000   5.122
  143        1.585   3.537   0.000   5.122
  144        1.585   3.537   0.000   5.122
  145        1.585   3.537   0.000   5.122
  146        1.584   3.542   0.000   5.125
  147        1.584   3.542   0.000   5.125
  148        1.584   3.542   0.000   5.125
  149        1.584   3.541   0.000   5.125
  150        1.585   3.536   0.000   5.122
  151        1.585   3.536   0.000   5.122
  152        1.585   3.536   0.000   5.122
  153        1.584   3.541   0.000   5.125
  154        1.584   3.542   0.000   5.125
  155        1.584   3.542   0.000   5.125
  156        1.585   3.536   0.000   5.122
--------------------------------------------------
tot        145.880 264.921  24.209 435.010
 


 magnetization (x)
 
# of ion       s       p       d       tot
------------------------------------------
    1        0.003   0.021   0.000   0.024
    2        0.003   0.022   0.000   0.025
    3        0.003   0.021   0.000   0.024
    4       -0.003  -0.021   0.000  -0.024
    5       -0.003  -0.022   0.000  -0.025
    6        0.003   0.022   0.000   0.025
    7       -0.003  -0.022   0.000  -0.025
    8       -0.003  -0.021   0.000  -0.023
    9       -0.003  -0.022   0.000  -0.025
   10        0.003   0.021   0.000   0.024
   11        0.003   0.022   0.000   0.025
   12       -0.003  -0.022   0.000  -0.025
   13        0.003   0.022   0.000   0.025
   14        0.003   0.021   0.000   0.024
   15       -0.003  -0.021   0.000  -0.024
   16       -0.003  -0.021   0.000  -0.024
   17        0.000  -0.002   0.000  -0.002
   18        0.000  -0.002   0.000  -0.002
   19        0.000   0.001   0.000   0.001
   20       -0.000  -0.001   0.000  -0.001
   21       -0.000  -0.003   0.000  -0.003
   22        0.000   0.001   0.000   0.001
   23       -0.000  -0.001   0.000  -0.001
   24       -0.000  -0.003   0.000  -0.004
   25       -0.000  -0.001   0.000  -0.001
   26        0.000   0.001   0.000   0.001
   27        0.000   0.003   0.000   0.003
   28       -0.000   0.002   0.000   0.002
   29        0.000   0.001   0.000   0.001
   30        0.000   0.003   0.000   0.004
   31       -0.000   0.002   0.000   0.002
   32       -0.000  -0.001   0.000  -0.001
   33       -0.000  -0.006   0.000  -0.007
   34       -0.000  -0.006   0.000  -0.007
   35       -0.000  -0.000   0.000  -0.000
   36        0.000   0.000   0.000   0.000
   37       -0.000  -0.006   0.000  -0.006
   38       -0.000  -0.000   0.000  -0.000
   39        0.000   0.000   0.000   0.000
   40       -0.000  -0.006   0.000  -0.006
   41        0.000   0.000   0.000   0.000
   42       -0.000  -0.000   0.000  -0.000
   43        0.000   0.006   0.000   0.006
   44        0.000   0.006   0.000   0.007
   45       -0.000  -0.000   0.000  -0.000
   46        0.000   0.006   0.000   0.006
   47        0.000   0.006   0.000   0.007
   48        0.000   0.000   0.000   0.000
   49       -0.000  -0.003   0.000  -0.004
   50       -0.000  -0.004   0.000  -0.004
   51        0.000   0.000   0.000   0.000
   52       -0.000  -0.000   0.000  -0.000
   53       -0.000  -0.004   0.000  -0.004
   54        0.000   0.000   0.000   0.000
   55       -0.000  -0.000   0.000  -0.000
   56       -0.000  -0.004   0.000  -0.004
   57       -0.000  -0.000   0.000  -0.000
   58        0.000   0.000   0.000   0.000
   59        0.000   0.004   0.000   0.004
   60        0.000   0.004   0.000   0.004
   61        0.000   0.000   0.000   0.000
   62        0.000   0.004   0.000   0.004
   63        0.000   0.003   0.000   0.003
   64       -0.000  -0.000   0.000  -0.000
   65        0.002   0.013   0.000   0.015
   66        0.002   0.013   0.000   0.015
   67       -0.002  -0.013   0.000  -0.015
   68       -0.002  -0.013   0.000  -0.015
   69        0.002   0.013   0.000   0.015
   70       -0.002  -0.013   0.000  -0.015
   71        0.002   0.013   0.000   0.015
   72       -0.002  -0.013   0.000  -0.015
   73        0.000   0.002   0.000   0.002
   74        0.000   0.000   0.000   0.000
   75       -0.000  -0.000   0.000  -0.000
   76        0.000   0.001   0.000   0.001
   77        0.000   0.000   0.000   0.000
   78       -0.000  -0.000   0.000  -0.000
   79       -0.000  -0.001   0.000  -0.001
   80       -0.000  -0.002   0.000  -0.002
   81        0.018   0.085   3.392   3.495
   82        0.018   0.085   3.392   3.495
   83       -0.018  -0.085  -3.392  -3.495
   84       -0.018  -0.084  -3.393  -3.495
   85       -0.000   0.000   0.000  -0.000
   86        0.000  -0.000   0.000   0.000
   87        0.000  -0.000   0.000   0.000
   88        0.000  -0.000   0.000   0.000
   89       -0.000   0.000   0.000  -0.000
   90        0.000  -0.000   0.000   0.000
   91       -0.000   0.000   0.000  -0.000
   92       -0.000   0.000   0.000  -0.000
   93       -0.000   0.000   0.000  -0.000
   94       -0.000   0.000   0.000  -0.000
   95        0.000  -0.000   0.000   0.000
   96       -0.000   0.000   0.000  -0.000
   97        0.000  -0.000   0.000   0.000
   98        0.000  -0.000   0.000   0.000
   99        0.000  -0.000   0.000   0.000
  100       -0.000   0.000   0.000  -0.000
  101       -0.000  -0.000   0.000  -0.000
  102       -0.000  -0.000   0.000  -0.000
  103       -0.000  -0.000   0.000  -0.000
  104        0.000   0.000   0.000   0.001
  105        0.000   0.000   0.000   0.000
  106       -0.000  -0.000   0.000  -0.000
  107        0.000   0.000   0.000   0.000
  108        0.000   0.000   0.000   0.000
  109        0.000   0.000   0.000   0.001
  110       -0.000  -0.000   0.000  -0.001
  111       -0.000  -0.000   0.000  -0.000
  112        0.000   0.000   0.000   0.000
  113       -0.000  -0.000   0.000  -0.001
  114       -0.000  -0.000   0.000  -0.000
  115        0.000   0.000   0.000   0.000
  116        0.000   0.000   0.000   0.001
  117        0.011   0.038   0.000   0.049
  118        0.013   0.042   0.000   0.055
  119        0.011   0.038   0.000   0.049
  120       -0.011  -0.038   0.000  -0.049
  121       -0.013  -0.042   0.000  -0.055
  122        0.013   0.042   0.000   0.055
  123       -0.013  -0.042   0.000  -0.055
  124       -0.011  -0.038   0.000  -0.049
  125       -0.013  -0.042   0.000  -0.055
  126        0.011   0.038   0.000   0.049
  127        0.013   0.042   0.000   0.055
  128       -0.013  -0.042   0.000  -0.055
  129        0.013   0.042   0.000   0.055
  130        0.011   0.038   0.000   0.049
  131       -0.011  -0.038   0.000  -0.049
  132       -0.011  -0.038   0.000  -0.049
  133        0.000   0.002   0.000   0.002
  134        0.000   0.001   0.000   0.001
  135       -0.000  -0.001   0.000  -0.001
  136        0.000   0.001   0.000   0.001
  137        0.000   0.001   0.000   0.001
  138       -0.000  -0.001   0.000  -0.001
  139       -0.000  -0.001   0.000  -0.001
  140       -0.000  -0.002   0.000  -0.002
  141       -0.000  -0.005   0.000  -0.005
  142       -0.000  -0.005   0.000  -0.005
  143        0.000   0.001   0.000   0.002
  144       -0.000  -0.002   0.000  -0.002
  145       -0.000  -0.008   0.000  -0.008
  146        0.000   0.002   0.000   0.002
  147       -0.000  -0.002   0.000  -0.002
  148       -0.000  -0.008   0.000  -0.008
  149       -0.000  -0.002   0.000  -0.002
  150        0.000   0.002   0.000   0.002
  151        0.000   0.008   0.000   0.008
  152        0.000   0.005   0.000   0.005
  153        0.000   0.002   0.000   0.002
  154        0.000   0.008   0.000   0.008
  155        0.000   0.005   0.000   0.005
  156       -0.000  -0.001   0.000  -0.002
--------------------------------------------------
tot          0.000   0.000  -0.000  -0.000
 

 total amount of memory used by VASP MPI-rank0   113574. kBytes
=======================================================================

   base      :      30000. kBytes
   nonlr-proj:       7001. kBytes
   fftplans  :      10027. kBytes
   grid      :      27806. kBytes
   one-center:       1213. kBytes
   wavefun   :      37527. kBytes
 
  
  
 General timing and accounting informations for this job:
 ========================================================
  
                  Total CPU time used (sec):     2217.495
                            User time (sec):     2081.256
                          System time (sec):      136.239
                         Elapsed time (sec):     2236.520
  
                   Maximum memory used (kb):     1004692.
                   Average memory used (kb):           0.
  
                          Minor page faults:       101727
                          Major page faults:            1
                 Voluntary context switches:        52516
