       N       E                     dE             d eps       ncg     rms          rms(c)
RMM:   1     0.622244825298E+04    0.62224E+04   -0.26678E+05  2800   0.138E+03
RMM:   2     0.214979216047E+04   -0.40727E+04   -0.66888E+04  2800   0.315E+02
RMM:   3     0.920370852293E+02   -0.20578E+04   -0.24175E+04  2800   0.178E+02
RMM:   4    -0.786785326452E+03   -0.87882E+03   -0.83515E+03  2800   0.132E+02
RMM:   5    -0.108291903637E+04   -0.29613E+03   -0.26367E+03  2800   0.751E+01
RMM:   6    -0.118034756124E+04   -0.97429E+02   -0.85841E+02  2800   0.465E+01
RMM:   7    -0.121451854356E+04   -0.34171E+02   -0.30790E+02  2800   0.273E+01
RMM:   8    -0.122710544895E+04   -0.12587E+02   -0.11236E+02  2800   0.185E+01
RMM:   9    -0.123576632051E+04   -0.86609E+01   -0.81670E+01  7345   0.110E+01
RMM:  10    -0.123599659183E+04   -0.23027E+00   -0.29396E+00  6984   0.219E+00
RMM:  11    -0.123602188859E+04   -0.25297E-01   -0.24694E-01  7219   0.587E-01
RMM:  12    -0.123602257883E+04   -0.69024E-03   -0.95260E-03  7326   0.109E-01    0.575E+01
RMM:  13    -0.116526249640E+04    0.70760E+02   -0.15501E+02  5600   0.162E+01    0.320E+01
RMM:  14    -0.115139097216E+04    0.13872E+02   -0.41672E+01  5600   0.840E+00    0.150E+01
RMM:  15    -0.115029372144E+04    0.10973E+01   -0.99715E+00  5600   0.444E+00    0.498E+00
RMM:  16    -0.115018804827E+04    0.10567E+00   -0.71067E-01  5718   0.140E+00    0.135E+00
RMM:  17    -0.115020174006E+04   -0.13692E-01   -0.15452E-01  5645   0.666E-01    0.422E-01
RMM:  18    -0.115020466090E+04   -0.29208E-02   -0.20291E-02  5636   0.227E-01    0.199E-01
RMM:  19    -0.115020772027E+04   -0.30594E-02   -0.51635E-03  5754   0.105E-01    0.942E-02
RMM:  20    -0.115020824234E+04   -0.52207E-03   -0.20051E-03  5616   0.652E-02    0.638E-02
RMM:  21    -0.115020819938E+04    0.42965E-04   -0.72493E-04  5600   0.390E-02    0.226E-02
RMM:  22    -0.115020814052E+04    0.58855E-04   -0.14612E-04  5644   0.163E-02    0.140E-02
RMM:  23    -0.115020813817E+04    0.23478E-05   -0.76552E-05  5600   0.113E-02    0.709E-03
RMM:  24    -0.115020814543E+04   -0.72607E-05   -0.10905E-05  4824   0.429E-03    0.320E-03
RMM:  25    -0.115020814764E+04   -0.22103E-05   -0.40233E-06  3885   0.257E-03    0.138E-03
RMM:  26    -0.115020814779E+04   -0.15046E-06   -0.77395E-07  3455   0.129E-03
   1 F= -.11634240E+04 E0= -.11634240E+04  d E =-.116342E+04
