 vasp.6.0.8 29Jun18 (build Mar 14 2019 11:44:20) complex                        
  
 executed on             LinuxIFC date 2021.01.07  00:35:32
 running   64 mpi-ranks, with    1 threads/rank
 distrk:  each k-point on   64 cores,    1 groups
 distr:  one band on NCORES_PER_BAND=   4 cores,   16 groups


--------------------------------------------------------------------------------------------------------


 INCAR:
 POTCAR:    PAW_PBE C 08Apr2002                   
 POTCAR:    PAW_PBE Zn 06Sep2000                  
 POTCAR:    PAW_PBE H 15Jun2001                   
 POTCAR:    PAW_PBE N 08Apr2002                   
 POTCAR:    PAW_PBE O 08Apr2002                   
 POTCAR:    PAW_PBE C 08Apr2002                   
   VRHFIN =C: s2p2                                                              
   LEXCH  = PE                                                                  
   EATOM  =   147.1560 eV,   10.8157 Ry                                         
                                                                                
   TITEL  = PAW_PBE C 08Apr2002                                                 
   LULTRA =        F    use ultrasoft PP ?                                      
   IUNSCR =        1    unscreen: 0-lin 1-nonlin 2-no                           
   RPACOR =    1.200    partial core radius                                     
   POMASS =   12.011; ZVAL   =    4.000    mass and valenz                      
   RCORE  =    1.500    outmost cutoff radius                                   
   RWIGS  =    1.630; RWIGS  =    0.863    wigner-seitz radius (au A)           
   ENMAX  =  400.000; ENMIN  =  300.000 eV                                      
   ICORE  =        2    local potential                                         
   LCOR   =        T    correct aug charges                                     
   LPAW   =        T    paw PP                                                  
   EAUG   =  644.873                                                            
   DEXC   =    0.000                                                            
   RMAX   =    1.529    core radius for proj-oper                               
   RAUG   =    1.300    factor for augmentation sphere                          
   RDEP   =    1.501    radius for radial grids                                 
   RDEPT  =    1.300    core radius for aug-charge                              
                                                                                
   Atomic configuration                                                         
    4 entries                                                                   
     n  l   j            E        occ.                                          
     1  0  0.50      -273.3789   2.0000                                         
     2  0  0.50       -13.7508   2.0000                                         
     2  1  0.50        -5.2854   2.0000                                         
     3  2  1.50        -5.4423   0.0000                                         
   Description                                                                  
     l       E           TYP  RCUT    TYP  RCUT                                 
     0    -13.7508458     23  1.200                                             
     0     -8.2022199     23  1.200                                             
     1     -5.2854383     23  1.500                                             
     1     34.0145650     23  1.500                                             
     2     -5.4423304      7  1.500                                             
  local pseudopotential read in
  partial core-charges read in
  partial kinetic energy density read in
  atomic valenz-charges read in
  non local Contribution for L=           0  read in
    real space projection operators read in
  non local Contribution for L=           0  read in
    real space projection operators read in
  non local Contribution for L=           1  read in
    real space projection operators read in
  non local Contribution for L=           1  read in
    real space projection operators read in
    PAW grid and wavefunctions read in
 
   number of l-projection  operators is LMAX  =           4
   number of lm-projection operators is LMMAX =           8
 
 POTCAR:    PAW_PBE Zn 06Sep2000                  
   VRHFIN =Zn: d10 p2                                                           
   LEXCH  = PE                                                                  
   EATOM  =  1748.8345 eV,  128.5357 Ry                                         
                                                                                
   TITEL  = PAW_PBE Zn 06Sep2000                                                
   LULTRA =        F    use ultrasoft PP ?                                      
   IUNSCR =        1    unscreen: 0-lin 1-nonlin 2-no                           
   RPACOR =    2.000    partial core radius                                     
   POMASS =   65.390; ZVAL   =   12.000    mass and valenz                      
   RCORE  =    2.300    outmost cutoff radius                                   
   RWIGS  =    2.400; RWIGS  =    1.270    wigner-seitz radius (au A)           
   ENMAX  =  276.723; ENMIN  =  207.542 eV                                      
   RCLOC  =    1.828    cutoff for local pot                                    
   LCOR   =        T    correct aug charges                                     
   LPAW   =        T    paw PP                                                  
   EAUG   =  575.892                                                            
   DEXC   =    0.000                                                            
   RMAX   =    2.347    core radius for proj-oper                               
   RAUG   =    1.300    factor for augmentation sphere                          
   RDEP   =    2.324    radius for radial grids                                 
   RDEPT  =    1.788    core radius for aug-charge                              
                                                                                
   Atomic configuration                                                         
    9 entries                                                                   
     n  l   j            E        occ.                                          
     1  0  0.50     -9524.6913   2.0000                                         
     2  0  0.50     -1158.1882   2.0000                                         
     2  1  1.50     -1003.8506   6.0000                                         
     3  0  0.50      -129.2194   2.0000                                         
     3  1  1.50       -83.3890   6.0000                                         
     3  2  2.50       -10.1410  10.0000                                         
     4  0  0.50        -5.9785   2.0000                                         
     4  1  0.50        -4.0817   0.0000                                         
     4  3  2.50        -1.3606   0.0000                                         
   Description                                                                  
     l       E           TYP  RCUT    TYP  RCUT                                 
     2    -10.1410010     23  2.300                                             
     2    -11.5015836     23  2.300                                             
     0     -5.9785163     23  2.300                                             
     0      1.1858015     23  2.300                                             
     1     -2.7211652     23  2.300                                             
     1     13.2444212     23  2.300                                             
  local pseudopotential read in
  partial core-charges read in
  partial kinetic energy density read in
  atomic valenz-charges read in
  non local Contribution for L=           2  read in
    real space projection operators read in
  non local Contribution for L=           2  read in
    real space projection operators read in
  non local Contribution for L=           0  read in
    real space projection operators read in
  non local Contribution for L=           0  read in
    real space projection operators read in
  non local Contribution for L=           1  read in
    real space projection operators read in
  non local Contribution for L=           1  read in
    real space projection operators read in
    PAW grid and wavefunctions read in
 
   number of l-projection  operators is LMAX  =           6
   number of lm-projection operators is LMMAX =          18
 
 POTCAR:    PAW_PBE H 15Jun2001                   
   VRHFIN =H: ultrasoft test                                                    
   LEXCH  = PE                                                                  
   EATOM  =    12.4884 eV,    0.9179 Ry                                         
                                                                                
   TITEL  = PAW_PBE H 15Jun2001                                                 
   LULTRA =        F    use ultrasoft PP ?                                      
   IUNSCR =        0    unscreen: 0-lin 1-nonlin 2-no                           
   RPACOR =    0.000    partial core radius                                     
   POMASS =    1.000; ZVAL   =    1.000    mass and valenz                      
   RCORE  =    1.100    outmost cutoff radius                                   
   RWIGS  =    0.700; RWIGS  =    0.370    wigner-seitz radius (au A)           
   ENMAX  =  250.000; ENMIN  =  200.000 eV                                      
   RCLOC  =    0.701    cutoff for local pot                                    
   LCOR   =        T    correct aug charges                                     
   LPAW   =        T    paw PP                                                  
   EAUG   =  400.000                                                            
   RMAX   =    1.123    core radius for proj-oper                               
   RAUG   =    1.200    factor for augmentation sphere                          
   RDEP   =    1.112    radius for radial grids                                 
   RDEPT  =    0.926    core radius for aug-charge                              
                                                                                
   Atomic configuration                                                         
    2 entries                                                                   
     n  l   j            E        occ.                                          
     1  0  0.50        -6.4927   1.0000                                         
     2  1  0.50        -3.4015   0.0000                                         
   Description                                                                  
     l       E           TYP  RCUT    TYP  RCUT                                 
     0     -6.4927494     23  1.100                                             
     0      6.8029130     23  1.100                                             
     1     -4.0817478     23  1.100                                             
  local pseudopotential read in
  atomic valenz-charges read in
  non local Contribution for L=           0  read in
    real space projection operators read in
  non local Contribution for L=           0  read in
    real space projection operators read in
  non local Contribution for L=           1  read in
    real space projection operators read in
    PAW grid and wavefunctions read in
 
   number of l-projection  operators is LMAX  =           3
   number of lm-projection operators is LMMAX =           5
 
 POTCAR:    PAW_PBE N 08Apr2002                   
   VRHFIN =N: s2p3                                                              
   LEXCH  = PE                                                                  
   EATOM  =   264.5486 eV,   19.4438 Ry                                         
                                                                                
   TITEL  = PAW_PBE N 08Apr2002                                                 
   LULTRA =        F    use ultrasoft PP ?                                      
   IUNSCR =        1    unscreen: 0-lin 1-nonlin 2-no                           
   RPACOR =    1.200    partial core radius                                     
   POMASS =   14.001; ZVAL   =    5.000    mass and valenz                      
   RCORE  =    1.500    outmost cutoff radius                                   
   RWIGS  =    1.400; RWIGS  =    0.741    wigner-seitz radius (au A)           
   ENMAX  =  400.000; ENMIN  =  300.000 eV                                      
   ICORE  =        2    local potential                                         
   LCOR   =        T    correct aug charges                                     
   LPAW   =        T    paw PP                                                  
   EAUG   =  627.112                                                            
   DEXC   =    0.000                                                            
   RMAX   =    1.529    core radius for proj-oper                               
   RAUG   =    1.300    factor for augmentation sphere                          
   RDEP   =    1.514    radius for radial grids                                 
   RDEPT  =    1.338    core radius for aug-charge                              
                                                                                
   Atomic configuration                                                         
    4 entries                                                                   
     n  l   j            E        occ.                                          
     1  0  0.50      -384.7179   2.0000                                         
     2  0  0.50       -18.5828   2.0000                                         
     2  1  0.50        -7.0898   3.0000                                         
     3  2  1.50        -6.8029   0.0000                                         
   Description                                                                  
     l       E           TYP  RCUT    TYP  RCUT                                 
     0    -18.5828119     23  1.200                                             
     0    -13.5018863     23  1.200                                             
     1     -7.0897853     23  1.500                                             
     1      9.5240782     23  1.500                                             
     2     -6.8029130      7  1.500                                             
  local pseudopotential read in
  partial core-charges read in
  partial kinetic energy density read in
  atomic valenz-charges read in
  non local Contribution for L=           0  read in
    real space projection operators read in
  non local Contribution for L=           0  read in
    real space projection operators read in
  non local Contribution for L=           1  read in
    real space projection operators read in
  non local Contribution for L=           1  read in
    real space projection operators read in
    PAW grid and wavefunctions read in
 
   number of l-projection  operators is LMAX  =           4
   number of lm-projection operators is LMMAX =           8
 
 POTCAR:    PAW_PBE O 08Apr2002                   
   VRHFIN =O: s2p4                                                              
   LEXCH  = PE                                                                  
   EATOM  =   432.3788 eV,   31.7789 Ry                                         
                                                                                
   TITEL  = PAW_PBE O 08Apr2002                                                 
   LULTRA =        F    use ultrasoft PP ?                                      
   IUNSCR =        1    unscreen: 0-lin 1-nonlin 2-no                           
   RPACOR =    1.200    partial core radius                                     
   POMASS =   16.000; ZVAL   =    6.000    mass and valenz                      
   RCORE  =    1.520    outmost cutoff radius                                   
   RWIGS  =    1.550; RWIGS  =    0.820    wigner-seitz radius (au A)           
   ENMAX  =  400.000; ENMIN  =  300.000 eV                                      
   ICORE  =        2    local potential                                         
   LCOR   =        T    correct aug charges                                     
   LPAW   =        T    paw PP                                                  
   EAUG   =  605.392                                                            
   DEXC   =    0.000                                                            
   RMAX   =    1.553    core radius for proj-oper                               
   RAUG   =    1.300    factor for augmentation sphere                          
   RDEP   =    1.550    radius for radial grids                                 
   RDEPT  =    1.329    core radius for aug-charge                              
                                                                                
   Atomic configuration                                                         
    4 entries                                                                   
     n  l   j            E        occ.                                          
     1  0  0.50      -514.6923   2.0000                                         
     2  0  0.50       -23.9615   2.0000                                         
     2  1  0.50        -9.0305   4.0000                                         
     3  2  1.50        -9.5241   0.0000                                         
   Description                                                                  
     l       E           TYP  RCUT    TYP  RCUT                                 
     0    -23.9615318     23  1.200                                             
     0     -9.5240782     23  1.200                                             
     1     -9.0304911     23  1.520                                             
     1      8.1634956     23  1.520                                             
     2     -9.5240782      7  1.500                                             
  local pseudopotential read in
  partial core-charges read in
  partial kinetic energy density read in
  kinetic energy density of atom read in
  atomic valenz-charges read in
  non local Contribution for L=           0  read in
    real space projection operators read in
  non local Contribution for L=           0  read in
    real space projection operators read in
  non local Contribution for L=           1  read in
    real space projection operators read in
  non local Contribution for L=           1  read in
    real space projection operators read in
    PAW grid and wavefunctions read in
 
   number of l-projection  operators is LMAX  =           4
   number of lm-projection operators is LMMAX =           8
 
 Optimization of the real space projectors (new method)

 maximal supplied QI-value         = 25.13
 optimisation between [QCUT,QGAM] = [ 12.32, 24.88] = [ 42.47,173.37] Ry 
 Optimized for a Real-space Cutoff    1.06 Angstroem

   l    n(q)    QCUT    max X(q) W(low)/X(q) W(high)/X(q)  e(spline) 
   0      8    12.315   115.676    0.34E-03    0.18E-03    0.23E-06
   0      8    12.315    87.132    0.34E-03    0.18E-03    0.22E-06
   1      7    12.315     4.429    0.45E-03    0.12E-03    0.18E-06
   1      7    12.315     2.733    0.35E-03    0.97E-04    0.15E-06
 Optimization of the real space projectors (new method)

 maximal supplied QI-value         = 16.25
 optimisation between [QCUT,QGAM] = [ 12.51, 25.03] = [ 43.85,175.40] Ry 
 Optimized for a Real-space Cutoff    1.31 Angstroem

   l    n(q)    QCUT    max X(q) W(low)/X(q) W(high)/X(q)  e(spline) 
   2      9    12.514    46.356    0.36E-03    0.54E-03    0.48E-06
   2      9    12.514    41.843    0.37E-03    0.56E-03    0.49E-06
   0     10    12.514    48.958    0.13E-03    0.28E-03    0.23E-06
   0     10    12.514    32.776    0.12E-03    0.26E-03    0.22E-06
   1      9    12.514    17.787    0.44E-03    0.44E-04    0.36E-06
   1      9    12.514    14.435    0.39E-03    0.39E-04    0.32E-06
 Optimization of the real space projectors (new method)

 maximal supplied QI-value         = 34.20
 optimisation between [QCUT,QGAM] = [ 12.31, 24.97] = [ 42.46,174.58] Ry 
 Optimized for a Real-space Cutoff    1.00 Angstroem

   l    n(q)    QCUT    max X(q) W(low)/X(q) W(high)/X(q)  e(spline) 
   0      7    12.313    19.460    0.14E-03    0.42E-03    0.16E-06
   0      7    12.313    12.209    0.12E-03    0.40E-03    0.16E-06
   1      7    12.313     4.655    0.33E-03    0.59E-03    0.89E-07
 Optimization of the real space projectors (new method)

 maximal supplied QI-value         = 25.13
 optimisation between [QCUT,QGAM] = [ 12.32, 24.88] = [ 42.47,173.37] Ry 
 Optimized for a Real-space Cutoff    1.20 Angstroem

   l    n(q)    QCUT    max X(q) W(low)/X(q) W(high)/X(q)  e(spline) 
   0      9    12.315    79.467    0.14E-03    0.22E-04    0.37E-06
   0      9    12.315    66.151    0.14E-03    0.23E-04    0.36E-06
   1      8    12.315    22.077    0.30E-03    0.54E-03    0.45E-06
   1      8    12.315    15.894    0.30E-03    0.55E-03    0.45E-06
 Optimization of the real space projectors (new method)

 maximal supplied QI-value         = 24.76
 optimisation between [QCUT,QGAM] = [ 12.38, 25.00] = [ 42.90,175.06] Ry 
 Optimized for a Real-space Cutoff    1.13 Angstroem

   l    n(q)    QCUT    max X(q) W(low)/X(q) W(high)/X(q)  e(spline) 
   0      8    12.378    20.381    0.16E-03    0.54E-05    0.27E-06
   0      8    12.378    15.268    0.17E-03    0.61E-05    0.29E-06
   1      8    12.378     5.964    0.38E-03    0.23E-03    0.28E-06
   1      8    12.378     5.382    0.33E-03    0.20E-03    0.25E-06
  PAW_PBE C 08Apr2002                   :
 energy of atom  1       EATOM= -147.1560
 kinetic energy error for atom=    0.0057 (will be added to EATOM!!)
  PAW_PBE Zn 06Sep2000                  :
 energy of atom  2       EATOM=-1748.8345
 kinetic energy error for atom=    0.0020 (will be added to EATOM!!)
  PAW_PBE H 15Jun2001                   :
 energy of atom  3       EATOM=  -12.4884
 kinetic energy error for atom=    0.0004 (will be added to EATOM!!)
  PAW_PBE N 08Apr2002                   :
 energy of atom  4       EATOM= -264.5486
 kinetic energy error for atom=    0.0103 (will be added to EATOM!!)
  PAW_PBE O 08Apr2002                   :
 energy of atom  5       EATOM= -432.3788
 kinetic energy error for atom=    0.0168 (will be added to EATOM!!)
 
 
 POSCAR: Zn_H
  positions in direct lattice
  velocities in cartesian coordinates
 exchange correlation table for  LEXCH =        8
   RHO(1)=    0.500       N(1)  =     2000
   RHO(2)=  100.500       N(2)  =     4000
 


--------------------------------------------------------------------------------------------------------


 ion  position               nearest neighbor table
   1  0.897  0.957  0.152- 107 1.08 117 1.34  65 1.40
   2  0.773  0.952  0.429- 112 1.09 118 1.35  65 1.40
   3  0.897  0.799  0.894- 116 1.08 119 1.34  66 1.40
   4  0.603  0.457  0.651- 110 1.08 120 1.34  67 1.40
   5  0.726  0.304  0.116- 111 1.09 121 1.35  68 1.40
   6  0.224  0.804  0.117- 115 1.09 122 1.35  69 1.40
   7  0.727  0.452  0.929- 101 1.09 123 1.35  67 1.40
   8  0.602  0.299  0.394- 113 1.08 124 1.34  68 1.40
   9  0.276  0.452  0.429- 114 1.09 125 1.35  70 1.40
  10  0.101  0.799  0.394- 104 1.08 126 1.34  69 1.40
  11  0.224  0.952  0.929- 105 1.09 127 1.35  71 1.40
  12  0.276  0.304  0.616- 102 1.09 128 1.35  72 1.40
  13  0.774  0.804  0.617- 108 1.09 129 1.35  66 1.40
  14  0.100  0.957  0.652- 109 1.08 130 1.34  71 1.40
  15  0.399  0.299  0.894- 106 1.08 131 1.34  72 1.40
  16  0.400  0.457  0.151- 103 1.08 132 1.34  70 1.40
  17  0.693  0.032  0.141- 141 1.23 133 1.42  33 1.48
  18  0.831  0.050  0.464- 142 1.23 133 1.41  34 1.48
  19  0.832  0.705  0.581- 143 1.23 134 1.41  35 1.48
  20  0.668  0.550  0.963- 144 1.23 135 1.41  36 1.48
  21  0.668  0.205  0.081- 145 1.23 136 1.41  37 1.48
  22  0.304  0.724  0.405- 146 1.23 137 1.42  38 1.48
  23  0.807  0.532  0.641- 147 1.23 135 1.42  39 1.48
  24  0.805  0.223  0.405- 148 1.23 136 1.42  40 1.48
  25  0.197  0.532  0.139- 149 1.23 138 1.42  41 1.48
  26  0.166  0.705  0.082- 150 1.23 137 1.41  42 1.48
  27  0.165  0.050  0.963- 151 1.23 139 1.41  43 1.48
  28  0.333  0.205  0.581- 152 1.23 140 1.41  44 1.48
  29  0.694  0.724  0.905- 153 1.23 134 1.42  45 1.48
  30  0.303  0.032  0.640- 154 1.23 139 1.42  46 1.48
  31  0.196  0.224  0.905- 155 1.23 140 1.42  47 1.48
  32  0.335  0.550  0.463- 156 1.23 138 1.41  48 1.48
  33  0.689  0.077  0.127-  49 1.39  73 1.41  17 1.48
  34  0.818  0.095  0.449-  50 1.39  73 1.41  18 1.48
  35  0.819  0.661  0.596-  51 1.39  74 1.41  19 1.48
  36  0.681  0.595  0.949-  52 1.39  75 1.41  20 1.48
  37  0.680  0.161  0.095-  53 1.39  76 1.41  21 1.48
  38  0.309  0.679  0.418-  54 1.39  77 1.41  22 1.48
  39  0.810  0.577  0.627-  55 1.39  75 1.41  23 1.48
  40  0.809  0.179  0.418-  56 1.39  76 1.41  24 1.48
  41  0.192  0.577  0.126-  57 1.39  78 1.41  25 1.48
  42  0.181  0.661  0.096-  58 1.39  77 1.41  26 1.48
  43  0.179  0.095  0.949-  59 1.39  79 1.41  27 1.48
  44  0.319  0.161  0.595-  60 1.39  80 1.41  28 1.48
  45  0.690  0.679  0.918-  61 1.39  74 1.41  29 1.48
  46  0.308  0.077  0.627-  62 1.39  79 1.41  30 1.48
  47  0.191  0.179  0.918-  63 1.39  80 1.41  31 1.48
  48  0.320  0.595  0.449-  64 1.39  78 1.41  32 1.48
  49  0.626  0.089  0.962-  88 1.09  33 1.39  53 1.41
  50  0.878  0.125  0.599-  99 1.09  34 1.39  56 1.41
  51  0.879  0.631  0.446-  93 1.09  35 1.39  55 1.41
  52  0.622  0.625  0.099-  90 1.09  36 1.39  61 1.41
  53  0.621  0.131  0.946-  98 1.09  37 1.39  49 1.41
  54  0.373  0.667  0.584-  96 1.09  38 1.39  64 1.41
  55  0.874  0.589  0.462-  86 1.09  39 1.39  51 1.41
  56  0.873  0.167  0.583-  87 1.09  40 1.39  50 1.41
  57  0.128  0.589  0.961-  95 1.09  41 1.39  58 1.41
  58  0.122  0.631  0.946-  91 1.09  42 1.39  57 1.41
  59  0.121  0.125  0.099-  92 1.09  43 1.39  63 1.41
  60  0.378  0.131  0.446-  85 1.09  44 1.39  62 1.41
  61  0.627  0.667  0.083-  89 1.09  45 1.39  52 1.41
  62  0.371  0.089  0.461- 100 1.09  46 1.39  60 1.41
  63  0.127  0.167  0.084-  94 1.09  47 1.39  59 1.41
  64  0.379  0.625  0.598-  97 1.09  48 1.39  54 1.41
  65  0.804  0.979  0.298-   1 1.40   2 1.40 133 1.43
  66  0.805  0.777  0.748-   3 1.40  13 1.40 134 1.43
  67  0.696  0.479  0.798-   4 1.40   7 1.40 135 1.43
  68  0.695  0.277  0.247-   8 1.40   5 1.40 136 1.43
  69  0.193  0.777  0.248-  10 1.40   6 1.40 137 1.43
  70  0.307  0.479  0.298-  16 1.40   9 1.40 138 1.43
  71  0.192  0.979  0.798-  14 1.40  11 1.40 139 1.43
  72  0.307  0.277  0.747-  15 1.40  12 1.40 140 1.43
  73  0.751  0.107  0.280-  33 1.41  34 1.41  76 1.42
  74  0.752  0.649  0.764-  45 1.41  35 1.41  75 1.42
  75  0.748  0.607  0.780-  39 1.41  36 1.41  74 1.42
  76  0.747  0.149  0.264-  40 1.41  37 1.41  73 1.42
  77  0.248  0.649  0.264-  38 1.41  42 1.41  78 1.42
  78  0.253  0.607  0.280-  41 1.41  48 1.41  77 1.42
  79  0.247  0.107  0.780-  46 1.41  43 1.41  80 1.42
  80  0.252  0.149  0.764-  47 1.41  44 1.41  79 1.42
  81  0.056  0.878  0.023- 122 1.99 127 2.00 117 2.02 119 2.02
  82  0.942  0.878  0.523- 129 1.99 118 2.00 130 2.02 126 2.02
  83  0.444  0.378  0.523- 125 2.00 128 2.00 120 2.02 124 2.02
  84  0.558  0.378  0.023- 121 2.00 123 2.00 132 2.02 131 2.02
  85  0.428  0.141  0.317-  60 1.09
  86  0.918  0.565  0.344-  55 1.09
  87  0.917  0.190  0.701-  56 1.09
  88  0.581  0.065  0.844-  49 1.09
  89  0.582  0.690  0.201-  61 1.09
  90  0.572  0.615  0.227-  52 1.09
  91  0.072  0.641  0.817-  58 1.09
  92  0.070  0.115  0.228-  59 1.09
  93  0.929  0.641  0.317-  51 1.09
  94  0.083  0.191  0.201-  63 1.09
  95  0.084  0.565  0.843-  57 1.09
  96  0.417  0.691  0.701-  54 1.09
  97  0.429  0.615  0.727-  64 1.09
  98  0.571  0.141  0.817-  53 1.09
  99  0.928  0.115  0.728-  50 1.09
 100  0.415  0.065  0.343-  62 1.09
 101  0.792  0.457  0.065-   7 1.09
 102  0.210  0.299  0.480-  12 1.09
 103  0.449  0.467  0.024-  16 1.08
 104  0.051  0.788  0.522-  10 1.08
 105  0.289  0.957  0.065-  11 1.09
 106  0.449  0.288  0.021-  15 1.08
 107  0.946  0.968  0.024-   1 1.08
 108  0.708  0.799  0.481-  13 1.09
 109  0.050  0.967  0.524-  14 1.08
 110  0.554  0.468  0.524-   4 1.08
 111  0.792  0.299  0.980-   5 1.09
 112  0.707  0.957  0.565-   2 1.09
 113  0.553  0.288  0.521-   8 1.08
 114  0.211  0.457  0.565-   9 1.09
 115  0.290  0.799  0.981-   6 1.09
 116  0.947  0.788  0.022-   3 1.08
 117  0.922  0.920  0.193-   1 1.34 118 1.37  81 2.02
 118  0.845  0.916  0.364-   2 1.35 117 1.37  82 2.00
 119  0.922  0.836  0.853-   3 1.34 129 1.37  81 2.02
 120  0.578  0.420  0.693-   4 1.34 123 1.37  83 2.02
 121  0.654  0.340  0.182-   5 1.35 124 1.37  84 2.00
 122  0.152  0.840  0.182-   6 1.35 126 1.37  81 1.99
 123  0.655  0.416  0.863-   7 1.35 120 1.37  84 2.00
 124  0.578  0.336  0.352-   8 1.34 121 1.37  83 2.02
 125  0.348  0.416  0.363-   9 1.35 132 1.37  83 2.00
 126  0.076  0.836  0.353-  10 1.34 122 1.37  82 2.02
 127  0.152  0.916  0.864-  11 1.35 130 1.37  81 2.00
 128  0.348  0.340  0.682-  12 1.35 131 1.37  83 2.00
 129  0.845  0.840  0.682-  13 1.35 119 1.37  82 1.99
 130  0.075  0.920  0.693-  14 1.34 127 1.37  82 2.02
 131  0.424  0.336  0.852-  15 1.34 128 1.37  84 2.02
 132  0.425  0.420  0.193-  16 1.34 125 1.37  84 2.02
 133  0.768  0.022  0.308-  18 1.41  17 1.42  65 1.43
 134  0.769  0.734  0.738-  19 1.41  29 1.42  66 1.43
 135  0.732  0.522  0.807-  20 1.41  23 1.42  67 1.43
 136  0.731  0.234  0.237-  21 1.41  24 1.42  68 1.43
 137  0.230  0.734  0.238-  26 1.41  22 1.42  69 1.43
 138  0.271  0.522  0.307-  32 1.41  25 1.42  70 1.43
 139  0.229  0.022  0.807-  27 1.41  30 1.42  71 1.43
 140  0.270  0.234  0.738-  28 1.41  31 1.42  72 1.43
 141  0.636  0.006  0.013-  17 1.23
 142  0.896  0.039  0.603-  18 1.23
 143  0.897  0.717  0.442-  19 1.23
 144  0.603  0.539  0.103-  20 1.23
 145  0.604  0.217  0.941-  21 1.23
 146  0.360  0.750  0.533-  22 1.23
 147  0.864  0.506  0.513-  23 1.23
 148  0.861  0.250  0.532-  24 1.23
 149  0.141  0.506  0.011-  25 1.23
 150  0.101  0.717  0.943-  26 1.23
 151  0.099  0.039  0.102-  27 1.23
 152  0.398  0.217  0.442-  28 1.23
 153  0.638  0.750  0.033-  29 1.23
 154  0.359  0.006  0.512-  30 1.23
 155  0.140  0.250  0.033-  31 1.23
 156  0.400  0.539  0.602-  32 1.23
 

IMPORTANT INFORMATION: All symmetrisations will be switched off!
NOSYMM: (Re-)initialisation of all symmetry stuff for point group C_1.


----------------------------------------------------------------------------------------

                                     Primitive cell                                     

  volume of cell :    1977.2767

  direct lattice vectors                    reciprocal lattice vectors
     8.948274363 -0.000383241 -0.000460970     0.111753389 -0.000012338 -0.000018602
     0.003115257 32.752363555 -3.008224332     0.000001458  0.030781920  0.002719420
     0.001065833 -0.600903240  6.801799902     0.000008219  0.013613884  0.148222622

  length of vectors
     8.948274383 32.890222587  6.828291715     0.111753391  0.030901809  0.148846510

  position of ions in fractional coordinates (direct lattice)
     0.896724370  0.957225034  0.151908922
     0.772797672  0.951936943  0.428932797
     0.897240444  0.798549631  0.894252674
     0.603204252  0.457221540  0.651456324
     0.726296937  0.303733741  0.116404522
     0.224478199  0.803830667  0.116907785
     0.726975588  0.451940168  0.928546759
     0.602430808  0.298509677  0.393536072
     0.275929752  0.452129203  0.428670120
     0.100705057  0.798551853  0.394071300
     0.223744187  0.952122829  0.929081520
     0.275608401  0.303785065  0.616293678
     0.773532469  0.803745156  0.616973372
     0.099884731  0.957256005  0.651836498
     0.399322210  0.298520089  0.893511000
     0.399622780  0.457244480  0.151260070
     0.692983478  0.032158789  0.140724363
     0.831379033  0.050297011  0.463686899
     0.832211830  0.705441969  0.581497024
     0.668233825  0.550279393  0.963381816
     0.667722567  0.205373406  0.080825872
     0.304331151  0.723672065  0.405232859
     0.806827571  0.532200861  0.640503885
     0.805216465  0.223479706  0.404567915
     0.196659809  0.532207649  0.139360614
     0.166459153  0.705462904  0.081839848
     0.164799026  0.050490624  0.963052177
     0.333313677  0.205374129  0.581245662
     0.694424155  0.723500201  0.905073575
     0.302956157  0.032176073  0.639952224
     0.195738457  0.223687765  0.904896867
     0.334624897  0.550452469  0.462588022
     0.689299499  0.076696737  0.127193292
     0.818407660  0.094629726  0.449186443
     0.819342279  0.661093578  0.595753607
     0.681190350  0.594619442  0.949058662
     0.680343711  0.161032386  0.095444074
     0.309083658  0.679123140  0.418134212
     0.810337985  0.576741053  0.627041668
     0.809146179  0.178938663  0.417697584
     0.191971779  0.576753937  0.126234599
     0.180643122  0.661121569  0.095663708
     0.179173572  0.094811791  0.948902132
     0.319167994  0.161049406  0.595443327
     0.690450109  0.678947786  0.918004807
     0.307730097  0.076707678  0.626583625
     0.190800929  0.179146820  0.917971876
     0.320439955  0.594781014  0.448631674
     0.625834653  0.089047616  0.961681680
     0.877724256  0.124580341  0.598575258
     0.878616618  0.631157656  0.446243186
     0.621888764  0.624543084  0.098591103
     0.621042898  0.131067761  0.946090017
     0.372775128  0.666814032  0.583587987
     0.873790372  0.589127685  0.461596801
     0.872660462  0.166598707  0.583181617
     0.128359029  0.589069461  0.960725284
     0.122282632  0.631109329  0.945792732
     0.120822918  0.124859746  0.098632640
     0.377520667  0.130989813  0.445728847
     0.626928976  0.666569988  0.083398608
     0.371421295  0.088968858  0.460976096
     0.127059913  0.166882601  0.083525790
     0.378878294  0.624780021  0.598486177
     0.803780399  0.979058607  0.298231880
     0.804716430  0.776640294  0.747666762
     0.696073948  0.479058259  0.797814920
     0.695020477  0.276604229  0.246961492
     0.193470649  0.776704866  0.247572426
     0.307051115  0.479184570  0.297681145
     0.192412251  0.979197440  0.798272278
     0.306692098  0.276654562  0.746934585
     0.751423896  0.106534944  0.280455503
     0.752461283  0.649147513  0.764464700
     0.748183800  0.606557252  0.780407386
     0.747148973  0.149116181  0.264274261
     0.247851437  0.649245904  0.264327556
     0.253183402  0.606648151  0.279989231
     0.246514094  0.106638280  0.780188617
     0.251960548  0.149225030  0.764262315
     0.055667089  0.877924125  0.023188685
     0.941845183  0.877885077  0.523088157
     0.444269759  0.377949290  0.522765231
     0.557887005  0.377876852  0.022582040
     0.428124015  0.140753733  0.316673854
     0.918458147  0.565430802  0.344127117
     0.917098086  0.190328927  0.700646497
     0.581194611  0.065331449  0.844298087
     0.582398533  0.690276295  0.200923588
     0.571522073  0.614652424  0.227472918
     0.071716490  0.640927628  0.816860315
     0.070170622  0.115071204  0.227598877
     0.928931169  0.641028059  0.317272570
     0.083245988  0.190676435  0.201201687
     0.084453196  0.565315665  0.842941782
     0.416616710  0.690572362  0.701387306
     0.429474902  0.614941217  0.727354951
     0.570786219  0.140903408  0.817005111
     0.928109305  0.114722737  0.727520987
     0.415349699  0.065179119  0.343365151
     0.792421681  0.456681967  0.064621532
     0.210309673  0.299045697  0.480067133
     0.448992484  0.467458005  0.023507930
     0.051346158  0.788265711  0.521650504
     0.289138609  0.956922633  0.065224783
     0.448636834  0.288249187  0.021158182
     0.946148934  0.967534847  0.024427456
     0.708201572  0.798961448  0.480797377
     0.050466095  0.967473450  0.524130067
     0.553829254  0.467518216  0.523924445
     0.791710639  0.298964392  0.980271665
     0.707248146  0.956671326  0.564957086
     0.553037541  0.288245537  0.521146195
     0.210648208  0.456961483  0.564924637
     0.289883180  0.799093838  0.980757744
     0.946577893  0.788295791  0.021923515
     0.921944085  0.919510067  0.193461460
     0.845093368  0.915869237  0.363636912
     0.922083908  0.836289061  0.852800163
     0.577996189  0.419504091  0.692989342
     0.654452205  0.339858968  0.181921738
     0.152348308  0.839916773  0.182399060
     0.654745736  0.415866080  0.863223601
     0.577631255  0.336258668  0.352197624
     0.347808449  0.415994863  0.363416605
     0.075583368  0.836284773  0.352669183
     0.151986543  0.915975680  0.863744852
     0.347590930  0.339888061  0.681858828
     0.845341820  0.839872988  0.682464737
     0.075174748  0.919523577  0.693437434
     0.424301923  0.336264557  0.852157244
     0.424516069  0.419528669  0.192977065
     0.767575317  0.021579719  0.307659640
     0.768760617  0.734114702  0.738055670
     0.732163327  0.521589400  0.807327269
     0.730977760  0.234074840  0.237432294
     0.229871564  0.734204568  0.238102617
     0.270910880  0.521694002  0.306695253
     0.228564473  0.021703473  0.807299418
     0.270221402  0.234163017  0.737630752
     0.636329200  0.005584003  0.013296621
     0.896232065  0.038886920  0.603324964
     0.896698930  0.716911556  0.441736138
     0.603333776  0.538843678  0.102931183
     0.603598951  0.216812514  0.940730812
     0.360064239  0.750293325  0.533283904
     0.863699187  0.505649560  0.513142481
     0.861425093  0.250048069  0.532444335
     0.141012783  0.505570534  0.011317079
     0.101042221  0.716857097  0.942599194
     0.098954678  0.039170363  0.102193892
     0.398424219  0.216708933  0.441598463
     0.638246189  0.750060123  0.033043041
     0.358621324  0.005507774  0.512048377
     0.140161988  0.250349694  0.032921794
     0.400272581  0.539092545  0.601745257

  ion indices of the primitive-cell ions
   primitive index   ion index
                 1           1
                 2           2
                 3           3
                 4           4
                 5           5
                 6           6
                 7           7
                 8           8
                 9           9
                10          10
                11          11
                12          12
                13          13
                14          14
                15          15
                16          16
                17          17
                18          18
                19          19
                20          20
                21          21
                22          22
                23          23
                24          24
                25          25
                26          26
                27          27
                28          28
                29          29
                30          30
                31          31
                32          32
                33          33
                34          34
                35          35
                36          36
                37          37
                38          38
                39          39
                40          40
                41          41
                42          42
                43          43
                44          44
                45          45
                46          46
                47          47
                48          48
                49          49
                50          50
                51          51
                52          52
                53          53
                54          54
                55          55
                56          56
                57          57
                58          58
                59          59
                60          60
                61          61
                62          62
                63          63
                64          64
                65          65
                66          66
                67          67
                68          68
                69          69
                70          70
                71          71
                72          72
                73          73
                74          74
                75          75
                76          76
                77          77
                78          78
                79          79
                80          80
                81          81
                82          82
                83          83
                84          84
                85          85
                86          86
                87          87
                88          88
                89          89
                90          90
                91          91
                92          92
                93          93
                94          94
                95          95
                96          96
                97          97
                98          98
                99          99
               100         100
               101         101
               102         102
               103         103
               104         104
               105         105
               106         106
               107         107
               108         108
               109         109
               110         110
               111         111
               112         112
               113         113
               114         114
               115         115
               116         116
               117         117
               118         118
               119         119
               120         120
               121         121
               122         122
               123         123
               124         124
               125         125
               126         126
               127         127
               128         128
               129         129
               130         130
               131         131
               132         132
               133         133
               134         134
               135         135
               136         136
               137         137
               138         138
               139         139
               140         140
               141         141
               142         142
               143         143
               144         144
               145         145
               146         146
               147         147
               148         148
               149         149
               150         150
               151         151
               152         152
               153         153
               154         154
               155         155
               156         156

----------------------------------------------------------------------------------------

 
 

Automatic generation of k-mesh.
 generate k-points for:    3    1    4
Space group operators:
 irot       det(A)        alpha          n_x          n_y          n_z        tau_x        tau_y        tau_z
    1     1.000000     0.000001     1.000000     0.000000     0.000000     0.000000     0.000000     0.000000
 
 Subroutine IBZKPT returns following result:
 ===========================================
 
 Found      7 irreducible k-points:
 
 Following reciprocal coordinates:
            Coordinates               Weight
  0.000000  0.000000  0.000000      1.000000
  0.333333  0.000000 -0.000000      2.000000
 -0.000000 -0.000000  0.250000      2.000000
  0.333333  0.000000  0.250000      2.000000
 -0.333333 -0.000000  0.250000      2.000000
 -0.000000 -0.000000  0.500000      1.000000
  0.333333  0.000000  0.500000      2.000000
 
 Following cartesian coordinates:
            Coordinates               Weight
  0.000000  0.000000  0.000000      1.000000
  0.037251 -0.000004 -0.000006      2.000000
  0.000002  0.003403  0.037056      2.000000
  0.037253  0.003399  0.037049      2.000000
 -0.037249  0.003408  0.037062      2.000000
  0.000004  0.006807  0.074111      1.000000
  0.037255  0.006803  0.074105      2.000000
 


--------------------------------------------------------------------------------------------------------




 Dimension of arrays:
   k-points           NKPTS =      7   k-points in BZ     NKDIM =      7   number of bands    NBANDS=    400
   number of dos      NEDOS =    301   number of ions     NIONS =    156
   non local maximal  LDIM  =      6   non local SUM 2l+1 LMDIM =     18
   total plane-waves  NPLWV = 453600
   max r-space proj   IRMAX =   2194   max aug-charges    IRDMAX=   7036
   dimension x,y,z NGX =    54 NGY =  200 NGZ =   42
   dimension x,y,z NGXF=   108 NGYF=  400 NGZF=   84
   support grid    NGXF=   108 NGYF=  400 NGZF=   84
   ions per type =              80   4  32  24  16
   NGX,Y,Z   is equivalent  to a cutoff of  10.03, 10.11, 10.23 a.u.
   NGXF,Y,Z  is equivalent  to a cutoff of  20.06, 20.22, 20.45 a.u.

 SYSTEM =  flex_MOF                                
 POSCAR =  Zn_H                                    

 Startparameter for this run:
   NWRITE =      2    write-flag & timer
   PREC   = normal    normal or accurate (medium, high low for compatibility)
   ISTART =      0    job   : 0-new  1-cont  2-samecut
   ICHARG =      2    charge: 1-file 2-atom 10-const
   ISPIN  =      1    spin polarized calculation?
   LNONCOLLINEAR =      F non collinear calculations
   LSORBIT =      F    spin-orbit coupling
   INIWAV =      1    electr: 0-lowe 1-rand  2-diag
   LASPH  =      F    aspherical Exc in radial PAW
   METAGGA=      F    non-selfconsistent MetaGGA calc.

 Electronic Relaxation 1
   ENCUT  =  600.0 eV  44.10 Ry    6.64 a.u.  17.87 65.69 13.64*2*pi/ulx,y,z
   ENINI  =  600.0     initial cutoff
   ENAUG  =  644.9 eV  augmentation charge cutoff
   NELM   =     80;   NELMIN=  4; NELMDL=-12     # of ELM steps 
   EDIFF  = 0.1E-05   stopping-criterion for ELM
   LREAL  =      T    real-space projection
   NLSPLINE    = F    spline interpolate recip. space projectors
   LCOMPAT=      F    compatible to vasp.4.4
   GGA_COMPAT  = T    GGA compatible to vasp.4.4-vasp.4.6
   LMAXPAW     = -100 max onsite density
   LMAXMIX     =    2 max onsite mixed and CHGCAR
   VOSKOWN=      0    Vosko Wilk Nusair interpolation
   ROPT   =   -0.00050  -0.00050  -0.00050  -0.00050
   ROPT   =   -0.00050
 Ionic relaxation
   EDIFFG = -.1E-01   stopping-criterion for IOM
   NSW    =   1000    number of steps for IOM
   NBLOCK =      1;   KBLOCK =   1000    inner block; outer block 
   IBRION =      2    ionic relax: 0-MD 1-quasi-New 2-CG
   NFREE  =      1    steps in history (QN), initial steepest desc. (CG)
   ISIF   =      4    stress and relaxation
   IWAVPR =     11    prediction:  0-non 1-charg 2-wave 3-comb
   ISYM   =      0    0-nonsym 1-usesym 2-fastsym
   LCORR  =      T    Harris-Foulkes like correction to forces

   POTIM  = 0.5000    time-step for ionic-motion
   TEIN   =    0.0    initial temperature
   TEBEG  =    0.0;   TEEND  =   0.0 temperature during run
   SMASS  =  -3.00    Nose mass-parameter (am)
   estimated Nose-frequenzy (Omega)   =  0.10E-29 period in steps = 0.13E+47 mass=  -0.183E-26a.u.
   SCALEE = 1.0000    scale energy and forces
   NPACO  =    256;   APACO  = 16.0  distance and # of slots for P.C.
   PSTRESS=    0.0 pullay stress

  Mass of Ions in am
   POMASS =  12.01 65.39  1.00 14.00 16.00
  Ionic Valenz
   ZVAL   =   4.00 12.00  1.00  5.00  6.00
  Atomic Wigner-Seitz radii
   RWIGS  =  -1.00 -1.00 -1.00 -1.00 -1.00
  virtual crystal weights 
   VCA    =   1.00  1.00  1.00  1.00  1.00
   NELECT =     616.0000    total number of electrons
   NUPDOWN=      -1.0000    fix difference up-down

 DOS related values:
   EMIN   =  10.00;   EMAX   =-10.00  energy-range for DOS
   EFERMI =   0.00
   ISMEAR =     0;   SIGMA  =   0.05  broadening in eV -4-tet -1-fermi 0-gaus

 Electronic relaxation 2 (details)
   IALGO  =     48    algorithm
   LDIAG  =      T    sub-space diagonalisation (order eigenvalues)
   LSUBROT=      F    optimize rotation matrix (better conditioning)
   TURBO    =      0    0=normal 1=particle mesh
   IRESTART =      0    0=no restart 2=restart with 2 vectors
   NREBOOT  =      0    no. of reboots
   NMIN     =      0    reboot dimension
   EREF     =   0.00    reference energy to select bands
   IMIX   =      4    mixing-type and parameters
     AMIX     =   0.40;   BMIX     =  1.00
     AMIX_MAG =   1.60;   BMIX_MAG =  1.00
     AMIN     =   0.10
     WC   =   100.;   INIMIX=   1;  MIXPRE=   1;  MAXMIX= -45

 Intra band minimization:
   WEIMIN = 0.0010     energy-eigenvalue tresh-hold
   EBREAK =  0.63E-09  absolut break condition
   DEPER  =   0.30     relativ break condition  

   TIME   =   0.40     timestep for ELM

  volume/ion in A,a.u.               =      12.67        85.53
  Fermi-wavevector in a.u.,A,eV,Ry     =   1.109803  2.097224 16.757790  1.231663
  Thomas-Fermi vector in A             =   2.246347
 
 Write flags
   LWAVE        =      T    write WAVECAR
   LDOWNSAMPLE  =      F    k-point downsampling of WAVECAR
   LCHARG       =      T    write CHGCAR
   LVTOT        =      F    write LOCPOT, total local potential
   LVHAR        =      F    write LOCPOT, Hartree potential only
   LELF         =      F    write electronic localiz. function (ELF)
   LORBIT       =      0    0 simple, 1 ext, 2 COOP (PROOUT), +10 PAW based schemes


 Dipole corrections
   LMONO  =      F    monopole corrections only (constant potential shift)
   LDIPOL =      F    correct potential (dipole corrections)
   IDIPOL =      0    1-x, 2-y, 3-z, 4-all directions 
   EPSILON=  1.0000000 bulk dielectric constant

 Exchange correlation treatment:
   GGA     =    PE    GGA type
   LEXCH   =     8    internal setting for exchange type
   VOSKOWN=      0    Vosko Wilk Nusair interpolation
   LHFCALC =     F    Hartree Fock is set to
   LHFONE  =     F    Hartree Fock one center treatment
   AEXX    =    0.0000 exact exchange contribution

 Linear response parameters
   LEPSILON=     F    determine dielectric tensor
   LRPA    =     F    only Hartree local field effects (RPA)
   LNABLA  =     F    use nabla operator in PAW spheres
   LVEL    =     F    velocity operator in full k-point grid
   LINTERFAST=   F  fast interpolation
   KINTER  =     0    interpolate to denser k-point grid
   CSHIFT  =0.1000    complex shift for real part using Kramers Kronig
   OMEGAMAX=  -1.0    maximum frequency
   DEG_THRESHOLD= 0.2000000E-02 threshold for treating states as degnerate
   RTIME   =   -0.100 relaxation time in fs
  (WPLASMAI=    0.000 imaginary part of plasma frequency in eV, 0.658/RTIME)
   DFIELD  = 0.0000000 0.0000000 0.0000000 field for delta impulse in time
 
 Orbital magnetization related:
   ORBITALMAG=     F  switch on orbital magnetization
   LCHIMAG   =     F  perturbation theory with respect to B field
   DQ        =  0.001000  dq finite difference perturbation B field
   LLRAUG    =     F  two centre corrections for induced B field



--------------------------------------------------------------------------------------------------------


 conjugate gradient relaxation of ions
 charge density and potential will be updated during run
 non-spin polarized calculation
 RMM-DIIS sequential band-by-band
 perform sub-space diagonalisation
    before iterative eigenvector-optimisation
 modified Broyden-mixing scheme, WC =      100.0
 initial mixing is a Kerker type mixing with AMIX =  0.4000 and BMIX =      1.0000
 Hartree-type preconditioning will be used
 using additional bands           92
 real space projection scheme for non local part
 use partial core corrections
 calculate Harris-corrections to forces 
   (improved forces if not selfconsistent)
 use gradient corrections 
 use of overlap-Matrix (Vanderbilt PP)
 Gauss-broadening in eV      SIGMA  =   0.05


--------------------------------------------------------------------------------------------------------


  energy-cutoff  :      600.00
  volume of cell :     1977.28
      direct lattice vectors                 reciprocal lattice vectors
     8.948274363 -0.000383241 -0.000460970     0.111753389 -0.000012338 -0.000018602
     0.003115257 32.752363555 -3.008224332     0.000001458  0.030781920  0.002719420
     0.001065833 -0.600903240  6.801799902     0.000008219  0.013613884  0.148222622

  length of vectors
     8.948274383 32.890222587  6.828291715     0.111753391  0.030901809  0.148846510


 
 k-points in units of 2pi/SCALE and weight: read from INCAR                         
   0.00000000  0.00000000  0.00000000       0.083
   0.03725113 -0.00000411 -0.00000620       0.167
   0.00000205  0.00340347  0.03705566       0.167
   0.03725318  0.00339936  0.03704946       0.167
  -0.03724908  0.00340758  0.03706186       0.167
   0.00000411  0.00680694  0.07411131       0.083
   0.03725524  0.00680283  0.07410511       0.167
 
 k-points in reciprocal lattice and weights: read from INCAR                         
   0.00000000  0.00000000  0.00000000       0.083
   0.33333333  0.00000000 -0.00000000       0.167
  -0.00000000 -0.00000000  0.25000000       0.167
   0.33333333  0.00000000  0.25000000       0.167
  -0.33333333 -0.00000000  0.25000000       0.167
  -0.00000000 -0.00000000  0.50000000       0.083
   0.33333333  0.00000000  0.50000000       0.167
 
 position of ions in fractional coordinates (direct lattice) 
   0.89672437  0.95722503  0.15190892
   0.77279767  0.95193694  0.42893280
   0.89724044  0.79854963  0.89425267
   0.60320425  0.45722154  0.65145632
   0.72629694  0.30373374  0.11640452
   0.22447820  0.80383067  0.11690779
   0.72697559  0.45194017  0.92854676
   0.60243081  0.29850968  0.39353607
   0.27592975  0.45212920  0.42867012
   0.10070506  0.79855185  0.39407130
   0.22374419  0.95212283  0.92908152
   0.27560840  0.30378507  0.61629368
   0.77353247  0.80374516  0.61697337
   0.09988473  0.95725600  0.65183650
   0.39932221  0.29852009  0.89351100
   0.39962278  0.45724448  0.15126007
   0.69298348  0.03215879  0.14072436
   0.83137903  0.05029701  0.46368690
   0.83221183  0.70544197  0.58149702
   0.66823383  0.55027939  0.96338182
   0.66772257  0.20537341  0.08082587
   0.30433115  0.72367206  0.40523286
   0.80682757  0.53220086  0.64050388
   0.80521647  0.22347971  0.40456791
   0.19665981  0.53220765  0.13936061
   0.16645915  0.70546290  0.08183985
   0.16479903  0.05049062  0.96305218
   0.33331368  0.20537413  0.58124566
   0.69442416  0.72350020  0.90507358
   0.30295616  0.03217607  0.63995222
   0.19573846  0.22368777  0.90489687
   0.33462490  0.55045247  0.46258802
   0.68929950  0.07669674  0.12719329
   0.81840766  0.09462973  0.44918644
   0.81934228  0.66109358  0.59575361
   0.68119035  0.59461944  0.94905866
   0.68034371  0.16103239  0.09544407
   0.30908366  0.67912314  0.41813421
   0.81033799  0.57674105  0.62704167
   0.80914618  0.17893866  0.41769758
   0.19197178  0.57675394  0.12623460
   0.18064312  0.66112157  0.09566371
   0.17917357  0.09481179  0.94890213
   0.31916799  0.16104941  0.59544333
   0.69045011  0.67894779  0.91800481
   0.30773010  0.07670768  0.62658363
   0.19080093  0.17914682  0.91797188
   0.32043995  0.59478101  0.44863167
   0.62583465  0.08904762  0.96168168
   0.87772426  0.12458034  0.59857526
   0.87861662  0.63115766  0.44624319
   0.62188876  0.62454308  0.09859110
   0.62104290  0.13106776  0.94609002
   0.37277513  0.66681403  0.58358799
   0.87379037  0.58912768  0.46159680
   0.87266046  0.16659871  0.58318162
   0.12835903  0.58906946  0.96072528
   0.12228263  0.63110933  0.94579273
   0.12082292  0.12485975  0.09863264
   0.37752067  0.13098981  0.44572885
   0.62692898  0.66656999  0.08339861
   0.37142129  0.08896886  0.46097610
   0.12705991  0.16688260  0.08352579
   0.37887829  0.62478002  0.59848618
   0.80378040  0.97905861  0.29823188
   0.80471643  0.77664029  0.74766676
   0.69607395  0.47905826  0.79781492
   0.69502048  0.27660423  0.24696149
   0.19347065  0.77670487  0.24757243
   0.30705112  0.47918457  0.29768115
   0.19241225  0.97919744  0.79827228
   0.30669210  0.27665456  0.74693459
   0.75142390  0.10653494  0.28045550
   0.75246128  0.64914751  0.76446470
   0.74818380  0.60655725  0.78040739
   0.74714897  0.14911618  0.26427426
   0.24785144  0.64924590  0.26432756
   0.25318340  0.60664815  0.27998923
   0.24651409  0.10663828  0.78018862
   0.25196055  0.14922503  0.76426232
   0.05566709  0.87792412  0.02318868
   0.94184518  0.87788508  0.52308816
   0.44426976  0.37794929  0.52276523
   0.55788701  0.37787685  0.02258204
   0.42812402  0.14075373  0.31667385
   0.91845815  0.56543080  0.34412712
   0.91709809  0.19032893  0.70064650
   0.58119461  0.06533145  0.84429809
   0.58239853  0.69027629  0.20092359
   0.57152207  0.61465242  0.22747292
   0.07171649  0.64092763  0.81686032
   0.07017062  0.11507120  0.22759888
   0.92893117  0.64102806  0.31727257
   0.08324599  0.19067644  0.20120169
   0.08445320  0.56531567  0.84294178
   0.41661671  0.69057236  0.70138731
   0.42947490  0.61494122  0.72735495
   0.57078622  0.14090341  0.81700511
   0.92810930  0.11472274  0.72752099
   0.41534970  0.06517912  0.34336515
   0.79242168  0.45668197  0.06462153
   0.21030967  0.29904570  0.48006713
   0.44899248  0.46745800  0.02350793
   0.05134616  0.78826571  0.52165050
   0.28913861  0.95692263  0.06522478
   0.44863683  0.28824919  0.02115818
   0.94614893  0.96753485  0.02442746
   0.70820157  0.79896145  0.48079738
   0.05046609  0.96747345  0.52413007
   0.55382925  0.46751822  0.52392444
   0.79171064  0.29896439  0.98027167
   0.70724815  0.95667133  0.56495709
   0.55303754  0.28824554  0.52114620
   0.21064821  0.45696148  0.56492464
   0.28988318  0.79909384  0.98075774
   0.94657789  0.78829579  0.02192351
   0.92194408  0.91951007  0.19346146
   0.84509337  0.91586924  0.36363691
   0.92208391  0.83628906  0.85280016
   0.57799619  0.41950409  0.69298934
   0.65445221  0.33985897  0.18192174
   0.15234831  0.83991677  0.18239906
   0.65474574  0.41586608  0.86322360
   0.57763126  0.33625867  0.35219762
   0.34780845  0.41599486  0.36341660
   0.07558337  0.83628477  0.35266918
   0.15198654  0.91597568  0.86374485
   0.34759093  0.33988806  0.68185883
   0.84534182  0.83987299  0.68246474
   0.07517475  0.91952358  0.69343743
   0.42430192  0.33626456  0.85215724
   0.42451607  0.41952867  0.19297707
   0.76757532  0.02157972  0.30765964
   0.76876062  0.73411470  0.73805567
   0.73216333  0.52158940  0.80732727
   0.73097776  0.23407484  0.23743229
   0.22987156  0.73420457  0.23810262
   0.27091088  0.52169400  0.30669525
   0.22856447  0.02170347  0.80729942
   0.27022140  0.23416302  0.73763075
   0.63632920  0.00558400  0.01329662
   0.89623207  0.03888692  0.60332496
   0.89669893  0.71691156  0.44173614
   0.60333378  0.53884368  0.10293118
   0.60359895  0.21681251  0.94073081
   0.36006424  0.75029333  0.53328390
   0.86369919  0.50564956  0.51314248
   0.86142509  0.25004807  0.53244433
   0.14101278  0.50557053  0.01131708
   0.10104222  0.71685710  0.94259919
   0.09895468  0.03917036  0.10219389
   0.39842422  0.21670893  0.44159846
   0.63824619  0.75006012  0.03304304
   0.35862132  0.00550777  0.51204838
   0.14016199  0.25034969  0.03292179
   0.40027258  0.53909254  0.60174526
 
 position of ions in cartesian coordinates  (Angst):
   8.02727960 31.25975608 -1.84670691
   6.91862829 30.92014158  0.05351895
   8.03219447 25.61668463  3.67989772
   5.39975585 14.58339273  3.05537254
   6.50017454  9.87777170 -0.12227376
   2.01132126 26.25701795 -1.62302309
   6.50757460 14.24386334  4.95591673
   5.39206553  9.54018948  1.77849184
   2.47096052 14.55060502  1.55549511
   0.90404419 25.91762329  0.27812460
   2.00608073 30.62589920  3.45512439
   2.46782283  9.57924040  3.27792560
   6.92494222 25.95351582  1.77832711
   0.89747282 30.96066774  1.55397458
   3.57512700  9.24017178  5.17928356
   3.57751993 14.88479162 -0.34683745
   6.20125646  0.96844903  0.86011866
   7.44005859  1.36839642  3.00221757
   7.44967719 22.75514946  1.83271508
   5.98228067 17.44379540  4.89705844
   5.97569067  6.67764001 -0.06835567
   2.72592497 23.45834819  0.57920462
   7.22205508 17.04564603  2.75522776
   7.20642525  7.07607382  2.07914173
   1.76157242 17.34724079 -0.65318764
   1.49180710 23.05633589 -1.56560914
   1.47585065  1.07492295  6.39852511
   2.98384154  6.37708800  3.33555159
   6.21711641 23.15221385  3.97935834
   2.71171713  0.66917696  4.25589448
   1.75318273  6.78247254  5.48193421
   2.99652323 17.75052049  1.49039240
   6.16841553  2.43530439  0.63410458
   7.32410984  2.82911595  2.77023159
   7.33439396 21.29407293  2.06310135
   6.09834208 18.90463865  4.66624443
   6.08850557  5.21657788  0.16445633
   2.76832668 21.99151133  0.80096801
   7.25359164 18.51253071  2.52967194
   7.24146464  5.60935823  2.30243475
   1.71974743 18.81412628 -0.87647124
   1.61860574 21.59574011 -1.33819986
   1.60460102  2.53504320  6.16894470
   2.85713913  4.91682255  3.56546649
   6.18143055 21.68524805  4.20133948
   2.75456014  2.13572368  4.03100068
   1.70887556  5.31579637  5.70485924
   2.86971569 19.21077697  1.26212044
   5.60144258  2.33840242  6.27300266
   7.85514354  3.72027843  3.69621891
   7.86454440 20.40341931  1.13618802
   5.56688198 20.39578009 -1.20845542
   5.55867893  3.72403238  6.04054748
   3.33839342 21.48891283  1.96335068
   7.82124326 19.01761422  1.36705805
   7.80994581  5.10573124  3.46511611
   1.15145089 18.71606502  4.76254889
   1.09719267 20.10194542  4.53451810
   1.08165072  4.03013681  0.29521766
   3.37904164  4.02224138  2.63753766
   5.61209791 21.78138783 -1.43822041
   3.32434813  2.63679601  2.86765767
   1.13757587  5.41556001  0.06604684
   3.39289116 20.10324492  2.19113011
   7.19581542 31.88696689 -0.91708487
   7.20403973 24.98722147  2.74880053
   6.23100339 15.21061393  3.98514186
   6.22035883  8.91077595  0.84737470
   1.73391196 25.29007894 -0.65265356
   2.74938768 15.51543201  0.58313136
   1.72565889 31.59127241  2.48395404
   2.74602299  8.61213785  4.24811923
   6.72457799  3.32045661  1.58677482
   6.73606707 20.80145766  3.24660771
   6.69767529 19.39694757  3.48316970
   6.68644021  4.72481778  1.34862131
   2.22014696 21.10540762 -0.15528843
   2.26774283 19.70081731  0.07938029
   2.20703950  3.02374336  4.98578136
   2.25589156  4.42812818  4.74934083
   0.50088406 28.74013463 -2.48329358
   8.43118146 28.43812488  0.91663156
   3.97718228 12.06443097  2.41858345
   4.99332724 12.36257661 -0.98339699
   3.83174715  4.41956300  1.73033603
   8.22074373 18.31205610  0.63931771
   8.20778499  5.81234999  4.19268241
   5.20179225  1.63219519  5.54594707
   5.21382640 22.48722133 -0.71013238
   5.11629356 19.99441141 -0.30205056
   0.64460612 20.50101319  3.62803327
   0.62850704  3.63206212  1.20188967
   8.31466610 20.80417791  0.22924012
   0.74571640  6.12416929  0.79489775
   0.75836991 18.00886537  4.03288606
   3.73089950 22.19625148  2.69310748
   3.84575020 19.70354376  3.09724373
   5.10886143  4.12375987  5.13297311
   8.30610950  3.31991540  4.60291262
   3.71723208  1.92828180  2.13923618
   7.09229817 14.91827884 -0.93462436
   1.88335193  9.50589889  2.36562709
   4.01918924 15.29605646 -1.24652928
   0.46247115 25.50408398  1.17685858
   2.59034218 31.30217338 -2.43512531
   4.01544600  9.42795623 -0.72341131
   8.46944041 31.67401193 -2.74484735
   6.34018340 25.87869169  0.86650583
   0.45515703 31.37207138  0.65462740
   4.95783097 14.99728644  2.15697426
   7.08642017  9.20243862  5.76789480
   6.33223288 30.99349150  0.96451707
   4.95018506  9.12735225  2.67736997
   1.88696362 14.62702285  2.46776458
   2.59748894 25.58276030  4.26693077
   8.47271780 25.80501365 -2.22268756
   8.25287932 29.99952306 -1.45063141
   7.56536807 29.77804773 -0.28214418
   8.25457400 26.87763959  3.28440591
   5.17411395 13.32310946  3.45134598
   5.85747054 11.02161631  0.21472156
   1.36606543 27.39959693 -1.28608639
   5.86106006 13.10163226  4.62015392
   5.17022587 10.80140808  1.38376999
   3.11396870 13.40630349  1.22032083
   0.67932185 27.17835390 -0.11698183
   1.36379139 29.48128314  3.11948926
   3.11212460 10.72227295  3.61524755
   7.56769435 27.09740621  2.11507254
   0.67628791 29.69985288  1.95045482
   3.79872582 10.50123237  4.78444824
   3.80019888 13.62443226  0.05035934
   6.86886967  0.52161895  2.02736884
   6.88215452 23.60019696  2.81137090
   6.55408369 16.59787950  3.92188311
   6.54197182  7.52355029  0.91048037
   2.05949484 23.90377020 -0.58923165
   2.42613698 16.90231363  0.51658227
   2.04618567  0.22564361  5.42569483
   2.41953091  7.22604399  4.31267733
   5.69407984  0.17465546  0.07334969
   8.02049460  0.91075516  3.98630197
   8.02661223 23.21476360  0.84755668
   5.40058450 17.58632115 -0.92112347
   5.40284710  6.53560278  5.74616382
   3.22485935 24.25328974  1.37007379
   7.73073945 16.25253825  1.96878703
   7.70961454  7.86938759  2.86898205
   1.26340812 16.55177542 -1.44395808
   0.90739137 22.91231462  4.25485756
   0.88570456  1.22147541  0.57722355
   3.56635500  6.83221913  2.35157163
   5.71357386 24.54614157 -2.03189117
   3.20960492 -0.12743636  3.46611667
   1.25502291  8.17970766 -0.52924519
   3.58406965 17.29481093  2.47105501
 


--------------------------------------------------------------------------------------------------------


 k-point  1 :   0.0000 0.0000 0.0000  plane waves:   66085
 k-point  2 :   0.3333 0.0000-0.0000  plane waves:   66027
 k-point  3 :  -0.0000-0.0000 0.2500  plane waves:   65957
 k-point  4 :   0.3333 0.0000 0.2500  plane waves:   65998
 k-point  5 :  -0.3333-0.0000 0.2500  plane waves:   65997
 k-point  6 :  -0.0000-0.0000 0.5000  plane waves:   65950
 k-point  7 :   0.3333 0.0000 0.5000  plane waves:   65993

 maximum and minimum number of plane-waves per node :     16588    16429

 maximum number of plane-waves:     66085
 maximum index in each direction: 
   IXMAX=   18   IYMAX=   65   IZMAX=   13
   IXMIN=  -18   IYMIN=  -65   IZMIN=  -14


 real space projection operators:
  total allocation   :      11658.56 KBytes
  max/ min on nodes  :       2988.95       2840.76


 parallel 3D FFT for wavefunctions:
    minimum data exchange during FFTs selected (reduces bandwidth)
 parallel 3D FFT for charge:
    minimum data exchange during FFTs selected (reduces bandwidth)


 total amount of memory used by VASP MPI-rank0    99704. kBytes
=======================================================================

   base      :      30000. kBytes
   nonlr-proj:       5941. kBytes
   fftplans  :       5846. kBytes
   grid      :      10227. kBytes
   one-center:        606. kBytes
   wavefun   :      47084. kBytes
 
     INWAV:  cpu time    0.0002: real time    0.0002
 Broyden mixing: mesh for mixing (old mesh)
   NGX = 35   NGY =131   NGZ = 27
  (NGX  =108   NGY  =400   NGZ  = 84)
  gives a total of 123795 points

 initial charge density was supplied:
 charge density of overlapping atoms calculated
 number of electron     616.0000000 magnetization 
 keeping initial charge density in first step


--------------------------------------------------------------------------------------------------------


 Maximum index for non-local projection operator          612
 Maximum index for augmentation-charges          387 (set IRDMAX)


--------------------------------------------------------------------------------------------------------


 First call to EWALD:  gamma=   0.141
 Maximum number of real-space cells 4x 1x 5
 Maximum number of reciprocal cells 2x 6x 2

    FEWALD:  cpu time    0.0152: real time    0.0152


--------------------------------------- Iteration      1(   1)  ---------------------------------------


    POTLOK:  cpu time    0.1007: real time    0.3284
    SETDIJ:  cpu time    0.0337: real time    0.0338
    EDDIAG:  cpu time    3.9341: real time    4.0191
  RMM-DIIS:  cpu time    4.9111: real time    4.9173
    ORTHCH:  cpu time    0.9199: real time    0.9221
       DOS:  cpu time    0.0042: real time    0.0045
    --------------------------------------------
      LOOP:  cpu time    9.9039: real time   10.2255

 eigenvalue-minimisations  :  2800
 total energy-change (2. order) : 0.6222448E+04  (-0.2667781E+05)
 number of electron     616.0000000 magnetization 
 augmentation part      616.0000000 magnetization 

 Free energy of the ion-electron system (eV)
  ---------------------------------------------------
  alpha Z        PSCENC =       977.05323921
  Ewald energy   TEWEN  =     -7170.27797635
  -Hartree energ DENC   =    -22262.64514207
  -exchange      EXHF   =         0.00000000
  -V(xc)+E(xc)   XCENC  =      2275.29726562
  PAW double counting   =     25034.14638475   -25847.60581054
  entropy T*S    EENTRO =        -0.07016824
  eigenvalues    EBANDS =       782.87054526
  atomic energy  EATOM  =     32433.67991533
  Solvation  Ediel_sol  =         0.00000000
  ---------------------------------------------------
  free energy    TOTEN  =      6222.44825298 eV

  energy without entropy =     6222.51842122  energy(sigma->0) =     6222.48333710


--------------------------------------------------------------------------------------------------------




--------------------------------------- Iteration      1(   2)  ---------------------------------------


    EDDIAG:  cpu time    3.7448: real time    3.7489
  RMM-DIIS:  cpu time    4.8741: real time    4.8791
    ORTHCH:  cpu time    0.9197: real time    0.9209
       DOS:  cpu time    0.0040: real time    0.0040
    --------------------------------------------
      LOOP:  cpu time    9.5426: real time    9.5529

 eigenvalue-minimisations  :  2800
 total energy-change (2. order) :-0.4072656E+04  (-0.6688771E+04)
 number of electron     616.0000000 magnetization 
 augmentation part      616.0000000 magnetization 

 Free energy of the ion-electron system (eV)
  ---------------------------------------------------
  alpha Z        PSCENC =       977.05323921
  Ewald energy   TEWEN  =     -7170.27797635
  -Hartree energ DENC   =    -22262.64514207
  -exchange      EXHF   =         0.00000000
  -V(xc)+E(xc)   XCENC  =      2275.29726562
  PAW double counting   =     25034.14638475   -25847.60581054
  entropy T*S    EENTRO =        -0.03397292
  eigenvalues    EBANDS =     -3289.82174256
  atomic energy  EATOM  =     32433.67991533
  Solvation  Ediel_sol  =         0.00000000
  ---------------------------------------------------
  free energy    TOTEN  =      2149.79216047 eV

  energy without entropy =     2149.82613339  energy(sigma->0) =     2149.80914693


--------------------------------------------------------------------------------------------------------




--------------------------------------- Iteration      1(   3)  ---------------------------------------


    EDDIAG:  cpu time    3.7684: real time    3.7731
  RMM-DIIS:  cpu time    4.8706: real time    4.8766
    ORTHCH:  cpu time    0.9210: real time    0.9223
       DOS:  cpu time    0.0043: real time    0.0043
    --------------------------------------------
      LOOP:  cpu time    9.5643: real time    9.5763

 eigenvalue-minimisations  :  2800
 total energy-change (2. order) :-0.2057755E+04  (-0.2417457E+04)
 number of electron     616.0000000 magnetization 
 augmentation part      616.0000000 magnetization 

 Free energy of the ion-electron system (eV)
  ---------------------------------------------------
  alpha Z        PSCENC =       977.05323921
  Ewald energy   TEWEN  =     -7170.27797635
  -Hartree energ DENC   =    -22262.64514207
  -exchange      EXHF   =         0.00000000
  -V(xc)+E(xc)   XCENC  =      2275.29726562
  PAW double counting   =     25034.14638475   -25847.60581054
  entropy T*S    EENTRO =        -0.03289972
  eigenvalues    EBANDS =     -5347.57789100
  atomic energy  EATOM  =     32433.67991533
  Solvation  Ediel_sol  =         0.00000000
  ---------------------------------------------------
  free energy    TOTEN  =        92.03708523 eV

  energy without entropy =       92.06998495  energy(sigma->0) =       92.05353509


--------------------------------------------------------------------------------------------------------




--------------------------------------- Iteration      1(   4)  ---------------------------------------


    EDDIAG:  cpu time    3.7240: real time    3.7283
  RMM-DIIS:  cpu time    4.8669: real time    4.8722
    ORTHCH:  cpu time    0.9204: real time    0.9219
       DOS:  cpu time    0.0033: real time    0.0033
    --------------------------------------------
      LOOP:  cpu time    9.5146: real time    9.5256

 eigenvalue-minimisations  :  2800
 total energy-change (2. order) :-0.8788224E+03  (-0.8351511E+03)
 number of electron     616.0000000 magnetization 
 augmentation part      616.0000000 magnetization 

 Free energy of the ion-electron system (eV)
  ---------------------------------------------------
  alpha Z        PSCENC =       977.05323921
  Ewald energy   TEWEN  =     -7170.27797635
  -Hartree energ DENC   =    -22262.64514207
  -exchange      EXHF   =         0.00000000
  -V(xc)+E(xc)   XCENC  =      2275.29726562
  PAW double counting   =     25034.14638475   -25847.60581054
  entropy T*S    EENTRO =        -0.01319925
  eigenvalues    EBANDS =     -6226.42000316
  atomic energy  EATOM  =     32433.67991533
  Solvation  Ediel_sol  =         0.00000000
  ---------------------------------------------------
  free energy    TOTEN  =      -786.78532645 eV

  energy without entropy =     -786.77212720  energy(sigma->0) =     -786.77872683


--------------------------------------------------------------------------------------------------------




--------------------------------------- Iteration      1(   5)  ---------------------------------------


    EDDIAG:  cpu time    3.7635: real time    3.7686
  RMM-DIIS:  cpu time    4.8706: real time    4.8774
    ORTHCH:  cpu time    0.9194: real time    0.9202
       DOS:  cpu time    0.0035: real time    0.0035
    --------------------------------------------
      LOOP:  cpu time    9.5570: real time    9.5697

 eigenvalue-minimisations  :  2800
 total energy-change (2. order) :-0.2961337E+03  (-0.2636667E+03)
 number of electron     616.0000000 magnetization 
 augmentation part      616.0000000 magnetization 

 Free energy of the ion-electron system (eV)
  ---------------------------------------------------
  alpha Z        PSCENC =       977.05323921
  Ewald energy   TEWEN  =     -7170.27797635
  -Hartree energ DENC   =    -22262.64514207
  -exchange      EXHF   =         0.00000000
  -V(xc)+E(xc)   XCENC  =      2275.29726562
  PAW double counting   =     25034.14638475   -25847.60581054
  entropy T*S    EENTRO =        -0.00620151
  eigenvalues    EBANDS =     -6522.56071082
  atomic energy  EATOM  =     32433.67991533
  Solvation  Ediel_sol  =         0.00000000
  ---------------------------------------------------
  free energy    TOTEN  =     -1082.91903637 eV

  energy without entropy =    -1082.91283486  energy(sigma->0) =    -1082.91593562


--------------------------------------------------------------------------------------------------------




--------------------------------------- Iteration      1(   6)  ---------------------------------------


    EDDIAG:  cpu time    3.7270: real time    3.7310
  RMM-DIIS:  cpu time    4.8913: real time    4.8971
    ORTHCH:  cpu time    0.9254: real time    0.9265
       DOS:  cpu time    0.0015: real time    0.0015
    --------------------------------------------
      LOOP:  cpu time    9.5452: real time    9.5561

 eigenvalue-minimisations  :  2800
 total energy-change (2. order) :-0.9742852E+02  (-0.8584081E+02)
 number of electron     616.0000000 magnetization 
 augmentation part      616.0000000 magnetization 

 Free energy of the ion-electron system (eV)
  ---------------------------------------------------
  alpha Z        PSCENC =       977.05323921
  Ewald energy   TEWEN  =     -7170.27797635
  -Hartree energ DENC   =    -22262.64514207
  -exchange      EXHF   =         0.00000000
  -V(xc)+E(xc)   XCENC  =      2275.29726562
  PAW double counting   =     25034.14638475   -25847.60581054
  entropy T*S    EENTRO =        -0.00000000
  eigenvalues    EBANDS =     -6619.99543720
  atomic energy  EATOM  =     32433.67991533
  Solvation  Ediel_sol  =         0.00000000
  ---------------------------------------------------
  free energy    TOTEN  =     -1180.34756124 eV

  energy without entropy =    -1180.34756124  energy(sigma->0) =    -1180.34756124


--------------------------------------------------------------------------------------------------------




--------------------------------------- Iteration      1(   7)  ---------------------------------------


    EDDIAG:  cpu time    3.7630: real time    3.7682
  RMM-DIIS:  cpu time    4.8706: real time    4.8755
    ORTHCH:  cpu time    0.9203: real time    0.9214
       DOS:  cpu time    0.0018: real time    0.0018
    --------------------------------------------
      LOOP:  cpu time    9.5557: real time    9.5668

 eigenvalue-minimisations  :  2800
 total energy-change (2. order) :-0.3417098E+02  (-0.3078964E+02)
 number of electron     616.0000000 magnetization 
 augmentation part      616.0000000 magnetization 

 Free energy of the ion-electron system (eV)
  ---------------------------------------------------
  alpha Z        PSCENC =       977.05323921
  Ewald energy   TEWEN  =     -7170.27797635
  -Hartree energ DENC   =    -22262.64514207
  -exchange      EXHF   =         0.00000000
  -V(xc)+E(xc)   XCENC  =      2275.29726562
  PAW double counting   =     25034.14638475   -25847.60581054
  entropy T*S    EENTRO =        -0.00000000
  eigenvalues    EBANDS =     -6654.16641951
  atomic energy  EATOM  =     32433.67991533
  Solvation  Ediel_sol  =         0.00000000
  ---------------------------------------------------
  free energy    TOTEN  =     -1214.51854356 eV

  energy without entropy =    -1214.51854356  energy(sigma->0) =    -1214.51854356


--------------------------------------------------------------------------------------------------------




--------------------------------------- Iteration      1(   8)  ---------------------------------------


    EDDIAG:  cpu time    3.7418: real time    3.7461
  RMM-DIIS:  cpu time    4.8652: real time    4.8715
    ORTHCH:  cpu time    0.9215: real time    0.9225
       DOS:  cpu time    0.0018: real time    0.0018
    --------------------------------------------
      LOOP:  cpu time    9.5302: real time    9.5418

 eigenvalue-minimisations  :  2800
 total energy-change (2. order) :-0.1258691E+02  (-0.1123593E+02)
 number of electron     616.0000000 magnetization 
 augmentation part      616.0000000 magnetization 

 Free energy of the ion-electron system (eV)
  ---------------------------------------------------
  alpha Z        PSCENC =       977.05323921
  Ewald energy   TEWEN  =     -7170.27797635
  -Hartree energ DENC   =    -22262.64514207
  -exchange      EXHF   =         0.00000000
  -V(xc)+E(xc)   XCENC  =      2275.29726562
  PAW double counting   =     25034.14638475   -25847.60581054
  entropy T*S    EENTRO =        -0.00000000
  eigenvalues    EBANDS =     -6666.75332490
  atomic energy  EATOM  =     32433.67991533
  Solvation  Ediel_sol  =         0.00000000
  ---------------------------------------------------
  free energy    TOTEN  =     -1227.10544895 eV

[...]
   -.582E+02 -.361E+02 -.743E+02   0.443E+02 0.515E+02 0.865E+02   0.139E+02 -.155E+02 -.123E+02   -.153E-03 0.203E-03 0.924E-04
   0.271E+03 0.103E+03 -.425E+02   -.275E+03 -.123E+03 0.546E+02   0.441E+01 0.207E+02 -.121E+02   0.610E-04 -.250E-03 0.774E-04
   -.583E+02 -.360E+02 -.744E+02   0.444E+02 0.514E+02 0.866E+02   0.140E+02 -.154E+02 -.123E+02   -.164E-03 0.206E-03 0.924E-04
   -.271E+03 0.103E+03 -.422E+02   0.275E+03 -.123E+03 0.543E+02   -.446E+01 0.208E+02 -.121E+02   -.640E-04 -.247E-03 0.797E-04
   0.271E+03 -.103E+03 0.421E+02   -.275E+03 0.124E+03 -.541E+02   0.441E+01 -.208E+02 0.120E+02   0.620E-04 0.253E-03 -.762E-04
   0.271E+03 -.103E+03 0.420E+02   -.275E+03 0.123E+03 -.540E+02   0.444E+01 -.208E+02 0.120E+02   0.620E-04 0.252E-03 -.786E-04
   -.584E+02 0.362E+02 0.739E+02   0.445E+02 -.516E+02 -.862E+02   0.139E+02 0.155E+02 0.122E+02   -.158E-03 -.204E-03 -.940E-04
   0.585E+02 -.361E+02 -.744E+02   -.446E+02 0.515E+02 0.866E+02   -.139E+02 -.154E+02 -.123E+02   0.155E-03 0.206E-03 0.912E-04
   0.584E+02 0.363E+02 0.739E+02   -.445E+02 -.517E+02 -.861E+02   -.139E+02 0.155E+02 0.122E+02   0.153E-03 -.204E-03 -.915E-04
   0.947E+02 0.983E+02 -.179E+02   -.976E+02 -.983E+02 0.194E+02   0.293E+01 0.778E-01 -.146E+01   0.297E-03 -.656E-03 -.389E-04
   0.939E+02 -.977E+02 0.177E+02   -.968E+02 0.978E+02 -.191E+02   0.289E+01 -.585E-01 0.144E+01   0.299E-03 0.655E-03 0.358E-04
   -.945E+02 0.983E+02 -.178E+02   0.974E+02 -.984E+02 0.192E+02   -.293E+01 0.760E-01 -.146E+01   -.294E-03 -.658E-03 -.411E-04
   -.938E+02 -.980E+02 0.177E+02   0.967E+02 0.980E+02 -.191E+02   -.288E+01 -.565E-01 0.143E+01   -.295E-03 0.661E-03 0.400E-04
   -.943E+02 -.979E+02 0.178E+02   0.973E+02 0.980E+02 -.193E+02   -.294E+01 -.725E-01 0.147E+01   -.302E-03 0.662E-03 0.342E-04
   0.948E+02 0.980E+02 -.180E+02   -.977E+02 -.981E+02 0.194E+02   0.297E+01 0.781E-01 -.148E+01   0.293E-03 -.662E-03 -.393E-04
   -.947E+02 0.978E+02 -.182E+02   0.977E+02 -.978E+02 0.196E+02   -.297E+01 0.758E-01 -.149E+01   -.299E-03 -.661E-03 -.366E-04
   0.940E+02 -.981E+02 0.177E+02   -.969E+02 0.982E+02 -.192E+02   0.290E+01 -.675E-01 0.144E+01   0.296E-03 0.660E-03 0.407E-04
   0.195E+03 0.313E+03 0.209E+03   -.218E+03 -.349E+03 -.244E+03   0.226E+02 0.358E+02 0.351E+02   0.165E-03 -.819E-03 -.156E-03
   -.571E+02 0.133E+03 -.205E+03   0.823E+02 -.154E+03 0.248E+03   -.252E+02 0.203E+02 -.431E+02   0.256E-03 -.789E-03 0.115E-03
   -.571E+02 -.134E+03 0.206E+03   0.821E+02 0.154E+03 -.249E+03   -.250E+02 -.204E+02 0.432E+02   0.257E-03 0.791E-03 -.115E-03
   0.570E+02 0.134E+03 -.205E+03   -.822E+02 -.154E+03 0.248E+03   0.252E+02 0.204E+02 -.431E+02   -.263E-03 -.803E-03 0.120E-03
   0.565E+02 -.134E+03 0.206E+03   -.814E+02 0.154E+03 -.249E+03   0.249E+02 -.204E+02 0.433E+02   -.254E-03 0.800E-03 -.118E-03
   -.194E+03 -.313E+03 -.210E+03   0.216E+03 0.349E+03 0.245E+03   -.222E+02 -.358E+02 -.353E+02   -.170E-03 0.814E-03 0.151E-03
   -.195E+03 0.313E+03 0.209E+03   0.218E+03 -.349E+03 -.244E+03   -.227E+02 0.357E+02 0.351E+02   -.152E-03 -.831E-03 -.165E-03
   -.195E+03 -.313E+03 -.209E+03   0.218E+03 0.349E+03 0.245E+03   -.224E+02 -.357E+02 -.352E+02   -.166E-03 0.829E-03 0.166E-03
   0.194E+03 0.313E+03 0.209E+03   -.217E+03 -.349E+03 -.245E+03   0.222E+02 0.358E+02 0.353E+02   0.161E-03 -.832E-03 -.169E-03
   0.584E+02 -.133E+03 0.205E+03   -.838E+02 0.153E+03 -.248E+03   0.254E+02 -.203E+02 0.430E+02   -.267E-03 0.793E-03 -.114E-03
   0.593E+02 0.133E+03 -.204E+03   -.849E+02 -.153E+03 0.247E+03   0.256E+02 0.202E+02 -.430E+02   -.262E-03 -.787E-03 0.109E-03
   -.577E+02 -.133E+03 0.205E+03   0.830E+02 0.154E+03 -.249E+03   -.253E+02 -.202E+02 0.431E+02   0.270E-03 0.800E-03 -.120E-03
   0.195E+03 -.312E+03 -.209E+03   -.217E+03 0.348E+03 0.245E+03   0.224E+02 -.357E+02 -.352E+02   0.179E-03 0.810E-03 0.151E-03
   -.195E+03 0.313E+03 0.209E+03   0.217E+03 -.349E+03 -.245E+03   -.222E+02 0.359E+02 0.352E+02   -.165E-03 -.822E-03 -.159E-03
   0.194E+03 -.313E+03 -.210E+03   -.216E+03 0.349E+03 0.245E+03   0.222E+02 -.359E+02 -.353E+02   0.160E-03 0.828E-03 0.163E-03
   -.594E+02 0.133E+03 -.205E+03   0.849E+02 -.153E+03 0.248E+03   -.255E+02 0.202E+02 -.430E+02   0.264E-03 -.805E-03 0.118E-03
 -----------------------------------------------------------------------------------------------
   0.126E+00 0.145E+00 0.224E+00   -.995E-13 0.284E-12 0.711E-12   -.136E+00 -.156E+00 -.227E+00   -.196E-04 -.726E-04 -.678E-04
 
 
 POSITION                                       TOTAL-FORCE (eV/Angst)
 -----------------------------------------------------------------------------------
      8.02728     31.25976     -1.84671        -0.001139      0.002060      0.001010
      6.91863     30.92014      0.05352        -0.000581      0.002001      0.001829
      8.03219     25.61668      3.67990        -0.001339     -0.004293     -0.000341
      5.39976     14.58339      3.05537         0.001473     -0.001390     -0.000144
      6.50017      9.87777     -0.12227         0.002190     -0.004843     -0.005489
      2.01132     26.25702     -1.62302        -0.001386      0.000724     -0.002065
      6.50757     14.24386      4.95592         0.001649     -0.000834      0.001553
      5.39207      9.54019      1.77849         0.001845     -0.004853      0.002151
      2.47096     14.55061      1.55550         0.000653      0.001779      0.000153
      0.90404     25.91762      0.27812         0.000654      0.001191      0.000333
      2.00608     30.62590      3.45512        -0.000771     -0.002736      0.000072
      2.46782      9.57924      3.27793         0.002538      0.002965     -0.001115
      6.92494     25.95352      1.77833        -0.002184     -0.000664     -0.003774
      0.89747     30.96067      1.55397         0.002139     -0.000938      0.002727
      3.57513      9.24017      5.17928        -0.001262      0.003671     -0.000323
      3.57752     14.88479     -0.34684        -0.000399     -0.004225     -0.001116
      6.20126      0.96845      0.86012        -0.001320      0.002560      0.001176
      7.44006      1.36840      3.00222         0.002802     -0.000878      0.000954
      7.44968     22.75515      1.83272        -0.000269      0.001834      0.002679
      5.98228     17.44380      4.89706        -0.000770      0.000168      0.000742
      5.97569      6.67764     -0.06836        -0.001291      0.001035      0.003880
      2.72592     23.45835      0.57920         0.001661      0.000042     -0.000596
      7.22206     17.04565      2.75523        -0.000073      0.002187      0.002252
      7.20643      7.07607      2.07914         0.000167     -0.002226     -0.002435
      1.76157     17.34724     -0.65319        -0.000219      0.002266      0.000820
      1.49181     23.05634     -1.56561         0.000749     -0.000585      0.001282
      1.47585      1.07492      6.39853        -0.002298     -0.001397      0.000192
      2.98384      6.37709      3.33555        -0.000852     -0.000128      0.000991
      6.21712     23.15221      3.97936         0.002070     -0.002875     -0.002679
      2.71172      0.66918      4.25589        -0.000171      0.002010     -0.000495
      1.75318      6.78247      5.48193        -0.000257     -0.003204     -0.000340
      2.99652     17.75052      1.49039        -0.000184     -0.003723     -0.000007
      6.16842      2.43530      0.63410         0.000196     -0.006550      0.001444
      7.32411      2.82912      2.77023         0.001114     -0.002704      0.003859
      7.33439     21.29407      2.06310         0.003854      0.004765     -0.004831
      6.09834     18.90464      4.66624        -0.001329     -0.005462      0.004754
      6.08851      5.21658      0.16446        -0.002118      0.002266     -0.004540
      2.76833     21.99151      0.80097        -0.000083      0.006701     -0.002127
      7.25359     18.51253      2.52967         0.000490     -0.003432      0.001136
      7.24146      5.60936      2.30243        -0.000617      0.004669     -0.001321
      1.71975     18.81413     -0.87647         0.001379     -0.005663      0.003155
      1.61861     21.59574     -1.33820        -0.001748      0.002404     -0.003479
      1.60460      2.53504      6.16894        -0.001703      0.001009      0.005455
      2.85714      4.91682      3.56547         0.001376     -0.002189     -0.002581
      6.18143     21.68525      4.20134         0.000703      0.006157     -0.001307
      2.75456      2.13572      4.03100        -0.000968     -0.003069      0.001427
      1.70888      5.31580      5.70486         0.000473      0.004003     -0.001232
      2.86972     19.21078      1.26212         0.001399     -0.003144      0.003825
      5.60144      2.33840      6.27300         0.000915      0.001812     -0.000466
      7.85514      3.72028      3.69622        -0.000254     -0.003845      0.001821
      7.86454     20.40342      1.13619        -0.000089      0.001442     -0.002369
      5.56688     20.39578     -1.20846        -0.000157     -0.001599      0.002669
      5.55868      3.72403      6.04055         0.002040      0.001980     -0.000582
      3.33839     21.48891      1.96335         0.000387      0.000029      0.000570
      7.82124     19.01761      1.36706        -0.000247     -0.001575     -0.000334
      7.80995      5.10573      3.46512        -0.000974     -0.003056      0.000440
      1.15145     18.71607      4.76255        -0.000202     -0.000143      0.000391
      1.09719     20.10195      4.53452        -0.000083      0.002432     -0.003454
      1.08165      4.03014      0.29522        -0.002048     -0.004067      0.004875
      3.37904      4.02224      2.63754         0.000555      0.005292     -0.002616
      5.61210     21.78139     -1.43822        -0.000850     -0.000034      0.001334
      3.32435      2.63680      2.86766        -0.000803     -0.002329      0.002098
      1.13758      5.41556      0.06605        -0.000562      0.000045     -0.000936
      3.39289     20.10324      2.19113        -0.000085     -0.003357      0.003000
      7.19582     31.88697     -0.91708        -0.002661      0.004174      0.001898
      7.20404     24.98722      2.74880        -0.000616      0.001406     -0.003552
      6.23100     15.21061      3.98514         0.000150      0.006572      0.002052
      6.22036      8.91078      0.84737        -0.000398      0.000944     -0.000521
      1.73391     25.29008     -0.65265         0.000690     -0.002942     -0.000390
      2.74939     15.51543      0.58313        -0.000711      0.002986     -0.000017
      1.72566     31.59127      2.48395         0.002659      0.004330      0.000503
      2.74602      8.61214      4.24812        -0.002904     -0.002609     -0.001785
      6.72458      3.32046      1.58677        -0.000447     -0.001989      0.001538
      6.73607     20.80146      3.24661        -0.000887      0.000425     -0.001770
      6.69768     19.39695      3.48317        -0.000331     -0.002974      0.001262
      6.68644      4.72482      1.34862         0.000690     -0.001407     -0.000421
      2.22015     21.10541     -0.15529        -0.000166     -0.000039     -0.002502
      2.26774     19.70082      0.07938         0.001207     -0.000504      0.001869
      2.20704      3.02374      4.98578         0.000358     -0.000905     -0.000190
      2.25589      4.42813      4.74934        -0.000928      0.002175     -0.001469
      0.50088     28.74013     -2.48329         0.003347      0.001427     -0.001371
      8.43118     28.43812      0.91663         0.004065     -0.001658      0.001121
      3.97718     12.06443      2.41858        -0.001862     -0.001266      0.001610
      4.99333     12.36258     -0.98340        -0.004215     -0.001135     -0.002236
      3.83175      4.41956      1.73034        -0.002206      0.001776      0.003740
      8.22074     18.31206      0.63932        -0.001594      0.005192      0.002382
      8.20778      5.81235      4.19268        -0.000289     -0.005501     -0.003148
      5.20179      1.63220      5.54595         0.002029      0.005511      0.003054
      5.21383     22.48722     -0.71013         0.002667     -0.004908     -0.002150
      5.11629     19.99441     -0.30205         0.001692     -0.000645     -0.003143
      0.64461     20.50101      3.62803         0.001362      0.001060      0.003313
      0.62851      3.63206      1.20189         0.001207     -0.000153     -0.003863
      8.31467     20.80418      0.22924        -0.001912      0.000773      0.003389
      0.74572      6.12417      0.79490         0.000400     -0.004197     -0.000400
      0.75837     18.00887      4.03289         0.002164      0.005034      0.003232
      3.73090     22.19625      2.69311         0.000016     -0.003740     -0.002724
      3.84575     19.70354      3.09724        -0.002041      0.000092     -0.004586
      5.10886      4.12376      5.13297         0.001947      0.001097      0.003945
      8.30611      3.31992      4.60291        -0.002490     -0.001032     -0.004133
      3.71723      1.92828      2.13924        -0.001430      0.004739      0.001166
      7.09230     14.91828     -0.93462        -0.001683     -0.002948      0.005021
      1.88335      9.50590      2.36563         0.001893      0.000974     -0.000418
      4.01919     15.29606     -1.24653        -0.001280      0.001679     -0.002464
      0.46247     25.50408      1.17686         0.001535     -0.001454      0.002468
      2.59034     31.30217     -2.43513        -0.001586     -0.000369      0.001056
      4.01545      9.42796     -0.72341        -0.002579     -0.000968      0.000105
      8.46944     31.67401     -2.74485        -0.000745      0.000340     -0.003078
      6.34018     25.87869      0.86651         0.001526      0.002198     -0.003951
      0.45516     31.37207      0.65463         0.000901      0.001938     -0.000783
      4.95783     14.99729      2.15697         0.000075      0.001742     -0.004008
      7.08642      9.20244      5.76789        -0.002961      0.002478     -0.003071
      6.33223     30.99349      0.96452         0.003529     -0.002983      0.002341
      4.95019      9.12735      2.67737         0.000262     -0.001844      0.003114
      1.88696     14.62702      2.46776         0.000275     -0.003245      0.002201
      2.59749     25.58276      4.26693        -0.002548      0.002499     -0.002036
      8.47272     25.80501     -2.22269        -0.000529     -0.000632      0.001382
      8.25288     29.99952     -1.45063        -0.001300      0.000962      0.001348
      7.56537     29.77805     -0.28214        -0.001044     -0.000349      0.003071
      8.25457     26.87764      3.28441         0.000868      0.000954     -0.000112
      5.17411     13.32311      3.45135         0.001230      0.002621      0.001513
      5.85747     11.02162      0.21472        -0.001730      0.000391      0.001464
      1.36607     27.39960     -1.28609         0.001108     -0.000588     -0.001030
      5.86106     13.10163      4.62015         0.001228      0.003979      0.001880
      5.17023     10.80141      1.38377        -0.000776      0.004163     -0.001716
      3.11397     13.40630      1.22032         0.000792      0.001049      0.000047
      0.67932     27.17835     -0.11698         0.001370     -0.001895     -0.002758
      1.36379     29.48128      3.11949        -0.001292      0.001054      0.001575
      3.11212     10.72227      3.61525         0.000374     -0.000292     -0.000730
      7.56769     27.09741      2.11507         0.003811     -0.000406      0.000660
      0.67629     29.69985      1.95045        -0.000083      0.001408      0.000609
      3.79873     10.50123      4.78445         0.000521     -0.002257     -0.001941
      3.80020     13.62443      0.05036         0.000063      0.001235      0.000966
      6.86887      0.52162      2.02737        -0.002826      0.002192     -0.003007
      6.88215     23.60020      2.81137        -0.004151     -0.002635      0.000240
      6.55408     16.59788      3.92188         0.001849     -0.001259     -0.001405
      6.54197      7.52355      0.91048         0.004362     -0.003961      0.000786
      2.05949     23.90377     -0.58923         0.003586     -0.001079      0.003429
      2.42614     16.90231      0.51658        -0.002511     -0.000734     -0.000965
      2.04619      0.22564      5.42569         0.003385     -0.000308     -0.003435
      2.41953      7.22604      4.31268        -0.001958      0.000221     -0.000234
      5.69408      0.17466      0.07335         0.001535     -0.000149     -0.000257
      8.02049      0.91076      3.98630        -0.000932      0.000332     -0.001886
      8.02661     23.21476      0.84756        -0.000680     -0.001085      0.000869
      5.40058     17.58632     -0.92112         0.000174      0.000490     -0.002649
      5.40285      6.53560      5.74616         0.001238      0.000845      0.001581
      3.22486     24.25329      1.37007        -0.002436     -0.001001     -0.000343
      7.73074     16.25254      1.96879        -0.002053     -0.000184     -0.003036
      7.70961      7.86939      2.86898        -0.001354      0.000150     -0.000388
      1.26341     16.55178     -1.44396         0.000859      0.000625     -0.003374
      0.90739     22.91231      4.25486         0.000233      0.000244     -0.002982
      0.88570      1.22148      0.57722         0.001664      0.001313     -0.001604
      3.56635      6.83222      2.35157        -0.002183      0.000769      0.004388
      5.71357     24.54614     -2.03189        -0.000636     -0.000241      0.000734
      3.20960     -0.12744      3.46612        -0.002040      0.002318     -0.000647
      1.25502      8.17971     -0.52925         0.000417     -0.001294     -0.000364
      3.58407     17.29481      2.47106         0.000888      0.001398      0.002169
 -----------------------------------------------------------------------------------
    total drift:                               -0.010126     -0.011421     -0.002470


--------------------------------------------------------------------------------------------------------



  FREE ENERGIE OF THE ION-ELECTRON SYSTEM (eV)
  ---------------------------------------------------
  free  energy   TOTEN  =     -1163.42398401 eV

  energy  without entropy=    -1163.42398401  energy(sigma->0) =    -1163.42398401
 


--------------------------------------------------------------------------------------------------------


    POTLOK:  cpu time    0.1238: real time    0.1247


--------------------------------------------------------------------------------------------------------




--------------------------------------------------------------------------------------------------------


  
 reached required accuracy - stopping structural energy minimisation
 writing wavefunctions
     LOOP+:  cpu time  415.2519: real time  426.9258
    4ORBIT:  cpu time    0.0000: real time    0.0000

 total amount of memory used by VASP MPI-rank0    99704. kBytes
=======================================================================

   base      :      30000. kBytes
   nonlr-proj:       5941. kBytes
   fftplans  :       5846. kBytes
   grid      :      10227. kBytes
   one-center:        606. kBytes
   wavefun   :      47084. kBytes
 
  
  
 General timing and accounting informations for this job:
 ========================================================
  
                  Total CPU time used (sec):      479.324
                            User time (sec):      438.563
                          System time (sec):       40.761
                         Elapsed time (sec):      495.579
  
                   Maximum memory used (kb):     1044392.
                   Average memory used (kb):           0.
  
                          Minor page faults:       387487
                          Major page faults:           13
                 Voluntary context switches:        10177
