       N       E                     dE             d eps       ncg     rms          rms(c)
DAV:   1     0.549991789077E+04    0.54999E+04   -0.27348E+05  4608   0.144E+03
DAV:   2    -0.299713776064E+03   -0.57996E+04   -0.55701E+04  6528   0.325E+02
DAV:   3    -0.126102846787E+04   -0.96131E+03   -0.95413E+03  5408   0.140E+02
DAV:   4    -0.129555714629E+04   -0.34529E+02   -0.34270E+02  6144   0.354E+01
DAV:   5    -0.129656463740E+04   -0.10075E+01   -0.10053E+01  6880   0.550E+00    0.857E+01
DAV:   6    -0.149599339009E+04   -0.19943E+03   -0.24648E+03  6976   0.929E+01    0.222E+02
DAV:   7    -0.140333970209E+04    0.92654E+02   -0.21161E+02  5184   0.326E+01    0.140E+02
DAV:   8    -0.116119814279E+04    0.24214E+03   -0.24503E+02  6464   0.992E+01    0.313E+01
DAV:   9    -0.117217776416E+04   -0.10980E+02   -0.11901E+02  6432   0.234E+01    0.312E+01
DAV:  10    -0.117641342701E+04   -0.42357E+01   -0.14719E+02  6336   0.187E+01    0.515E+01
DAV:  11    -0.117321092385E+04    0.32025E+01   -0.14911E+02  6496   0.327E+01    0.485E+01
DAV:  12    -0.116413001869E+04    0.90809E+01   -0.53620E+01  6528   0.212E+01    0.110E+01
DAV:  13    -0.116629599135E+04   -0.21660E+01   -0.26302E+00  6464   0.554E+00    0.744E+00
DAV:  14    -0.116718570222E+04   -0.88971E+00   -0.81982E-01  6624   0.363E+00    0.476E+00
DAV:  15    -0.116751363907E+04   -0.32794E+00   -0.40218E-01  6976   0.333E+00    0.317E+00
DAV:  16    -0.116776106205E+04   -0.24742E+00   -0.15853E-01  6496   0.210E+00    0.197E+00
DAV:  17    -0.116792904376E+04   -0.16798E+00   -0.16517E-01  6816   0.208E+00    0.121E+00
DAV:  18    -0.116802211048E+04   -0.93067E-01   -0.13354E-01  6656   0.166E+00    0.862E-01
DAV:  19    -0.116807755698E+04   -0.55446E-01   -0.87063E-02  6208   0.975E-01    0.747E-01
DAV:  20    -0.116814771416E+04   -0.70157E-01   -0.36958E-02  6784   0.856E-01    0.554E-01
DAV:  21    -0.116823230328E+04   -0.84589E-01   -0.46313E-02  6624   0.823E-01    0.430E-01
DAV:  22    -0.116834238824E+04   -0.11008E+00   -0.35041E-02  6560   0.615E-01    0.888E-01
DAV:  23    -0.116834446240E+04   -0.20742E-02   -0.13569E-02  5888   0.337E-01    0.379E-01
DAV:  24    -0.116843742064E+04   -0.92958E-01   -0.96792E-03  5472   0.183E-01    0.231E-01
DAV:  25    -0.116852869368E+04   -0.91273E-01   -0.81244E-03  5600   0.152E-01    0.249E-01
DAV:  26    -0.116855579749E+04   -0.27104E-01   -0.23164E-03  5824   0.152E-01    0.103E-01
DAV:  27    -0.116856692269E+04   -0.11125E-01   -0.11532E-03  5728   0.671E-02    0.964E-02
DAV:  28    -0.116857331613E+04   -0.63934E-02   -0.48894E-04  5792   0.483E-02    0.624E-02
DAV:  29    -0.116858069712E+04   -0.73810E-02   -0.62978E-04  5440   0.538E-02    0.475E-02
DAV:  30    -0.116858310278E+04   -0.24057E-02   -0.22808E-04  5760   0.312E-02    0.424E-02
DAV:  31    -0.116858445305E+04   -0.13503E-02   -0.14439E-04  5472   0.315E-02    0.306E-02
DAV:  32    -0.116858507236E+04   -0.61931E-03   -0.69575E-05  5696   0.170E-02    0.212E-02
DAV:  33    -0.116858537467E+04   -0.30231E-03   -0.15252E-05  5536   0.127E-02    0.114E-02
DAV:  34    -0.116858564756E+04   -0.27289E-03   -0.21064E-05  5344   0.114E-02    0.479E-03
DAV:  35    -0.116858580654E+04   -0.15897E-03   -0.10368E-05  5344   0.545E-03    0.423E-03
DAV:  36    -0.116858588384E+04   -0.77304E-04   -0.27503E-06  4640   0.304E-03    0.300E-03
DAV:  37    -0.116858595247E+04   -0.68633E-04   -0.45131E-06  4576   0.299E-03    0.286E-03
DAV:  38    -0.116858597228E+04   -0.19810E-04   -0.85833E-07  3968   0.190E-03    0.166E-03
DAV:  39    -0.116858598295E+04   -0.10669E-04   -0.41006E-07  3712   0.101E-03    0.107E-03
DAV:  40    -0.116858599229E+04   -0.93345E-05   -0.50726E-07  3936   0.104E-03    0.887E-04
DAV:  41    -0.116858599560E+04   -0.33162E-05   -0.12640E-07  3648   0.708E-04    0.513E-04
DAV:  42    -0.116858599828E+04   -0.26765E-05   -0.88779E-08  3648   0.481E-04    0.349E-04
DAV:  43    -0.116858600005E+04   -0.17680E-05   -0.45885E-08  3488   0.392E-04    0.210E-04
DAV:  44    -0.116858600117E+04   -0.11252E-05   -0.27919E-08  3264   0.272E-04    0.156E-04
DAV:  45    -0.116858600209E+04   -0.91323E-06   -0.16313E-08  3296   0.231E-04
   1 F= -.11792615E+04 E0= -.11792583E+04  d E =-.117926E+04  mag=    -0.0004
