 vasp.6.0.8 29Jun18 (build Mar 14 2019 11:44:20) complex                        
  
 executed on             LinuxIFC date 2020.12.27  18:06:31
 running  128 mpi-ranks, with    1 threads/rank
 distrk:  each k-point on  128 cores,    1 groups
 distr:  one band on NCORES_PER_BAND=   4 cores,   32 groups


--------------------------------------------------------------------------------------------------------


 INCAR:
 POTCAR:    PAW_PBE C 08Apr2002                   
 POTCAR:    PAW_PBE Co 02Aug2007                  
 POTCAR:    PAW_PBE H 15Jun2001                   
 POTCAR:    PAW_PBE N 08Apr2002                   
 POTCAR:    PAW_PBE O 08Apr2002                   
 POTCAR:    PAW_PBE C 08Apr2002                   
   VRHFIN =C: s2p2                                                              
   LEXCH  = PE                                                                  
   EATOM  =   147.1560 eV,   10.8157 Ry                                         
                                                                                
   TITEL  = PAW_PBE C 08Apr2002                                                 
   LULTRA =        F    use ultrasoft PP ?                                      
   IUNSCR =        1    unscreen: 0-lin 1-nonlin 2-no                           
   RPACOR =    1.200    partial core radius                                     
   POMASS =   12.011; ZVAL   =    4.000    mass and valenz                      
   RCORE  =    1.500    outmost cutoff radius                                   
   RWIGS  =    1.630; RWIGS  =    0.863    wigner-seitz radius (au A)           
   ENMAX  =  400.000; ENMIN  =  300.000 eV                                      
   ICORE  =        2    local potential                                         
   LCOR   =        T    correct aug charges                                     
   LPAW   =        T    paw PP                                                  
   EAUG   =  644.873                                                            
   DEXC   =    0.000                                                            
   RMAX   =    1.529    core radius for proj-oper                               
   RAUG   =    1.300    factor for augmentation sphere                          
   RDEP   =    1.501    radius for radial grids                                 
   RDEPT  =    1.300    core radius for aug-charge                              
                                                                                
   Atomic configuration                                                         
    4 entries                                                                   
     n  l   j            E        occ.                                          
     1  0  0.50      -273.3789   2.0000                                         
     2  0  0.50       -13.7508   2.0000                                         
     2  1  0.50        -5.2854   2.0000                                         
     3  2  1.50        -5.4423   0.0000                                         
   Description                                                                  
     l       E           TYP  RCUT    TYP  RCUT                                 
     0    -13.7508458     23  1.200                                             
     0     -8.2022199     23  1.200                                             
     1     -5.2854383     23  1.500                                             
     1     34.0145650     23  1.500                                             
     2     -5.4423304      7  1.500                                             
  local pseudopotential read in
  partial core-charges read in
  partial kinetic energy density read in
  atomic valenz-charges read in
  non local Contribution for L=           0  read in
    real space projection operators read in
  non local Contribution for L=           0  read in
    real space projection operators read in
  non local Contribution for L=           1  read in
    real space projection operators read in
  non local Contribution for L=           1  read in
    real space projection operators read in
    PAW grid and wavefunctions read in
 
   number of l-projection  operators is LMAX  =           4
   number of lm-projection operators is LMMAX =           8
 
 POTCAR:    PAW_PBE Co 02Aug2007                  
   VRHFIN =Co: d8 s1                                                            
   LEXCH  = PE                                                                  
   EATOM  =   813.3670 eV,   59.7808 Ry                                         
                                                                                
   TITEL  = PAW_PBE Co 02Aug2007                                                
   LULTRA =        F    use ultrasoft PP ?                                      
   IUNSCR =        1    unscreen: 0-lin 1-nonlin 2-no                           
   RPACOR =    2.000    partial core radius                                     
   POMASS =   58.933; ZVAL   =    9.000    mass and valenz                      
   RCORE  =    2.300    outmost cutoff radius                                   
   RWIGS  =    2.460; RWIGS  =    1.302    wigner-seitz radius (au A)           
   ENMAX  =  267.968; ENMIN  =  200.976 eV                                      
   RCLOC  =    1.203    cutoff for local pot                                    
   LCOR   =        T    correct aug charges                                     
   LPAW   =        T    paw PP                                                  
   EAUG   =  477.818                                                            
   DEXC   =    0.000                                                            
   RMAX   =    2.360    core radius for proj-oper                               
   RAUG   =    1.300    factor for augmentation sphere                          
   RDEP   =    2.393    radius for radial grids                                 
   RDEPT  =    1.864    core radius for aug-charge                              
                                                                                
   Atomic configuration                                                         
    9 entries                                                                   
     n  l   j            E        occ.                                          
     1  0  0.50     -7587.6674   2.0000                                         
     2  0  0.50      -893.6084   2.0000                                         
     2  1  1.50      -764.5805   6.0000                                         
     3  0  0.50       -97.5973   2.0000                                         
     3  1  1.50       -60.9648   6.0000                                         
     3  2  2.50        -4.2382   8.0000                                         
     4  0  0.50        -4.3746   1.0000                                         
     4  1  1.50        -4.0817   0.0000                                         
     4  3  2.50        -1.3606   0.0000                                         
   Description                                                                  
     l       E           TYP  RCUT    TYP  RCUT                                 
     2     -4.2382362     23  2.300                                             
     2     -5.5988188     23  2.300                                             
     0     -4.3745797     23  2.300                                             
     0      5.7660125     23  2.300                                             
     1     -2.7211652     23  2.300                                             
     1     16.9860234     23  2.300                                             
  local pseudopotential read in
  partial core-charges read in
  partial kinetic energy density read in
  atomic valenz-charges read in
  non local Contribution for L=           2  read in
    real space projection operators read in
  non local Contribution for L=           2  read in
    real space projection operators read in
  non local Contribution for L=           0  read in
    real space projection operators read in
  non local Contribution for L=           0  read in
    real space projection operators read in
  non local Contribution for L=           1  read in
    real space projection operators read in
  non local Contribution for L=           1  read in
    real space projection operators read in
    PAW grid and wavefunctions read in
 
   number of l-projection  operators is LMAX  =           6
   number of lm-projection operators is LMMAX =          18
 
 POTCAR:    PAW_PBE H 15Jun2001                   
   VRHFIN =H: ultrasoft test                                                    
   LEXCH  = PE                                                                  
   EATOM  =    12.4884 eV,    0.9179 Ry                                         
                                                                                
   TITEL  = PAW_PBE H 15Jun2001                                                 
   LULTRA =        F    use ultrasoft PP ?                                      
   IUNSCR =        0    unscreen: 0-lin 1-nonlin 2-no                           
   RPACOR =    0.000    partial core radius                                     
   POMASS =    1.000; ZVAL   =    1.000    mass and valenz                      
   RCORE  =    1.100    outmost cutoff radius                                   
   RWIGS  =    0.700; RWIGS  =    0.370    wigner-seitz radius (au A)           
   ENMAX  =  250.000; ENMIN  =  200.000 eV                                      
   RCLOC  =    0.701    cutoff for local pot                                    
   LCOR   =        T    correct aug charges                                     
   LPAW   =        T    paw PP                                                  
   EAUG   =  400.000                                                            
   RMAX   =    1.123    core radius for proj-oper                               
   RAUG   =    1.200    factor for augmentation sphere                          
   RDEP   =    1.112    radius for radial grids                                 
   RDEPT  =    0.926    core radius for aug-charge                              
                                                                                
   Atomic configuration                                                         
    2 entries                                                                   
     n  l   j            E        occ.                                          
     1  0  0.50        -6.4927   1.0000                                         
     2  1  0.50        -3.4015   0.0000                                         
   Description                                                                  
     l       E           TYP  RCUT    TYP  RCUT                                 
     0     -6.4927494     23  1.100                                             
     0      6.8029130     23  1.100                                             
     1     -4.0817478     23  1.100                                             
  local pseudopotential read in
  atomic valenz-charges read in
  non local Contribution for L=           0  read in
    real space projection operators read in
  non local Contribution for L=           0  read in
    real space projection operators read in
  non local Contribution for L=           1  read in
    real space projection operators read in
    PAW grid and wavefunctions read in
 
   number of l-projection  operators is LMAX  =           3
   number of lm-projection operators is LMMAX =           5
 
 POTCAR:    PAW_PBE N 08Apr2002                   
   VRHFIN =N: s2p3                                                              
   LEXCH  = PE                                                                  
   EATOM  =   264.5486 eV,   19.4438 Ry                                         
                                                                                
   TITEL  = PAW_PBE N 08Apr2002                                                 
   LULTRA =        F    use ultrasoft PP ?                                      
   IUNSCR =        1    unscreen: 0-lin 1-nonlin 2-no                           
   RPACOR =    1.200    partial core radius                                     
   POMASS =   14.001; ZVAL   =    5.000    mass and valenz                      
   RCORE  =    1.500    outmost cutoff radius                                   
   RWIGS  =    1.400; RWIGS  =    0.741    wigner-seitz radius (au A)           
   ENMAX  =  400.000; ENMIN  =  300.000 eV                                      
   ICORE  =        2    local potential                                         
   LCOR   =        T    correct aug charges                                     
   LPAW   =        T    paw PP                                                  
   EAUG   =  627.112                                                            
   DEXC   =    0.000                                                            
   RMAX   =    1.529    core radius for proj-oper                               
   RAUG   =    1.300    factor for augmentation sphere                          
   RDEP   =    1.514    radius for radial grids                                 
   RDEPT  =    1.338    core radius for aug-charge                              
                                                                                
   Atomic configuration                                                         
    4 entries                                                                   
     n  l   j            E        occ.                                          
     1  0  0.50      -384.7179   2.0000                                         
     2  0  0.50       -18.5828   2.0000                                         
     2  1  0.50        -7.0898   3.0000                                         
     3  2  1.50        -6.8029   0.0000                                         
   Description                                                                  
     l       E           TYP  RCUT    TYP  RCUT                                 
     0    -18.5828119     23  1.200                                             
     0    -13.5018863     23  1.200                                             
     1     -7.0897853     23  1.500                                             
     1      9.5240782     23  1.500                                             
     2     -6.8029130      7  1.500                                             
  local pseudopotential read in
  partial core-charges read in
  partial kinetic energy density read in
  atomic valenz-charges read in
  non local Contribution for L=           0  read in
    real space projection operators read in
  non local Contribution for L=           0  read in
    real space projection operators read in
  non local Contribution for L=           1  read in
    real space projection operators read in
  non local Contribution for L=           1  read in
    real space projection operators read in
    PAW grid and wavefunctions read in
 
   number of l-projection  operators is LMAX  =           4
   number of lm-projection operators is LMMAX =           8
 
 POTCAR:    PAW_PBE O 08Apr2002                   
   VRHFIN =O: s2p4                                                              
   LEXCH  = PE                                                                  
   EATOM  =   432.3788 eV,   31.7789 Ry                                         
                                                                                
   TITEL  = PAW_PBE O 08Apr2002                                                 
   LULTRA =        F    use ultrasoft PP ?                                      
   IUNSCR =        1    unscreen: 0-lin 1-nonlin 2-no                           
   RPACOR =    1.200    partial core radius                                     
   POMASS =   16.000; ZVAL   =    6.000    mass and valenz                      
   RCORE  =    1.520    outmost cutoff radius                                   
   RWIGS  =    1.550; RWIGS  =    0.820    wigner-seitz radius (au A)           
   ENMAX  =  400.000; ENMIN  =  300.000 eV                                      
   ICORE  =        2    local potential                                         
   LCOR   =        T    correct aug charges                                     
   LPAW   =        T    paw PP                                                  
   EAUG   =  605.392                                                            
   DEXC   =    0.000                                                            
   RMAX   =    1.553    core radius for proj-oper                               
   RAUG   =    1.300    factor for augmentation sphere                          
   RDEP   =    1.550    radius for radial grids                                 
   RDEPT  =    1.329    core radius for aug-charge                              
                                                                                
   Atomic configuration                                                         
    4 entries                                                                   
     n  l   j            E        occ.                                          
     1  0  0.50      -514.6923   2.0000                                         
     2  0  0.50       -23.9615   2.0000                                         
     2  1  0.50        -9.0305   4.0000                                         
     3  2  1.50        -9.5241   0.0000                                         
   Description                                                                  
     l       E           TYP  RCUT    TYP  RCUT                                 
     0    -23.9615318     23  1.200                                             
     0     -9.5240782     23  1.200                                             
     1     -9.0304911     23  1.520                                             
     1      8.1634956     23  1.520                                             
     2     -9.5240782      7  1.500                                             
  local pseudopotential read in
  partial core-charges read in
  partial kinetic energy density read in
  kinetic energy density of atom read in
  atomic valenz-charges read in
  non local Contribution for L=           0  read in
    real space projection operators read in
  non local Contribution for L=           0  read in
    real space projection operators read in
  non local Contribution for L=           1  read in
    real space projection operators read in
  non local Contribution for L=           1  read in
    real space projection operators read in
    PAW grid and wavefunctions read in
 
   number of l-projection  operators is LMAX  =           4
   number of lm-projection operators is LMMAX =           8
 
 Optimization of the real space projectors (new method)

 maximal supplied QI-value         = 25.13
 optimisation between [QCUT,QGAM] = [ 12.32, 24.88] = [ 42.47,173.37] Ry 
 Optimized for a Real-space Cutoff    1.06 Angstroem

   l    n(q)    QCUT    max X(q) W(low)/X(q) W(high)/X(q)  e(spline) 
   0      8    12.315   115.676    0.34E-03    0.18E-03    0.23E-06
   0      8    12.315    87.132    0.34E-03    0.18E-03    0.22E-06
   1      7    12.315     4.429    0.45E-03    0.12E-03    0.18E-06
   1      7    12.315     2.733    0.35E-03    0.97E-04    0.15E-06
 Optimization of the real space projectors (new method)

 maximal supplied QI-value         = 16.25
 optimisation between [QCUT,QGAM] = [ 12.51, 25.03] = [ 43.85,175.40] Ry 
 Optimized for a Real-space Cutoff    1.31 Angstroem

   l    n(q)    QCUT    max X(q) W(low)/X(q) W(high)/X(q)  e(spline) 
   2      9    12.514    65.824    0.30E-03    0.46E-03    0.43E-06
   2      9    12.514    61.429    0.31E-03    0.46E-03    0.44E-06
   0     10    12.514    56.174    0.90E-04    0.33E-03    0.30E-06
   0     10    12.514    31.263    0.81E-04    0.30E-03    0.28E-06
   1      9    12.514    19.828    0.38E-03    0.65E-04    0.24E-06
   1      9    12.514    15.139    0.32E-03    0.60E-04    0.20E-06
 Optimization of the real space projectors (new method)

 maximal supplied QI-value         = 34.20
 optimisation between [QCUT,QGAM] = [ 12.31, 24.97] = [ 42.46,174.58] Ry 
 Optimized for a Real-space Cutoff    1.00 Angstroem

   l    n(q)    QCUT    max X(q) W(low)/X(q) W(high)/X(q)  e(spline) 
   0      7    12.313    19.460    0.14E-03    0.42E-03    0.16E-06
   0      7    12.313    12.209    0.12E-03    0.40E-03    0.16E-06
   1      7    12.313     4.655    0.33E-03    0.59E-03    0.89E-07
 Optimization of the real space projectors (new method)

 maximal supplied QI-value         = 25.13
 optimisation between [QCUT,QGAM] = [ 12.32, 24.88] = [ 42.47,173.37] Ry 
 Optimized for a Real-space Cutoff    1.20 Angstroem

   l    n(q)    QCUT    max X(q) W(low)/X(q) W(high)/X(q)  e(spline) 
   0      9    12.315    79.467    0.14E-03    0.22E-04    0.37E-06
   0      9    12.315    66.151    0.14E-03    0.23E-04    0.36E-06
   1      8    12.315    22.077    0.30E-03    0.54E-03    0.45E-06
   1      8    12.315    15.894    0.30E-03    0.55E-03    0.45E-06
 Optimization of the real space projectors (new method)

 maximal supplied QI-value         = 24.76
 optimisation between [QCUT,QGAM] = [ 12.38, 25.00] = [ 42.90,175.06] Ry 
 Optimized for a Real-space Cutoff    1.13 Angstroem

   l    n(q)    QCUT    max X(q) W(low)/X(q) W(high)/X(q)  e(spline) 
   0      8    12.378    20.381    0.16E-03    0.54E-05    0.27E-06
   0      8    12.378    15.268    0.17E-03    0.61E-05    0.29E-06
   1      8    12.378     5.964    0.38E-03    0.23E-03    0.28E-06
   1      8    12.378     5.382    0.33E-03    0.20E-03    0.25E-06
  PAW_PBE C 08Apr2002                   :
 energy of atom  1       EATOM= -147.1560
 kinetic energy error for atom=    0.0057 (will be added to EATOM!!)
  PAW_PBE Co 02Aug2007                  :
 energy of atom  2       EATOM= -813.3670
 kinetic energy error for atom=    0.0018 (will be added to EATOM!!)
  PAW_PBE H 15Jun2001                   :
 energy of atom  3       EATOM=  -12.4884
 kinetic energy error for atom=    0.0004 (will be added to EATOM!!)
  PAW_PBE N 08Apr2002                   :
 energy of atom  4       EATOM= -264.5486
 kinetic energy error for atom=    0.0103 (will be added to EATOM!!)
  PAW_PBE O 08Apr2002                   :
 energy of atom  5       EATOM= -432.3788
 kinetic energy error for atom=    0.0168 (will be added to EATOM!!)
 
 
 POSCAR: CoH_exp5	
  positions in direct lattice
  velocities in cartesian coordinates
 exchange correlation table for  LEXCH =        8
   RHO(1)=    0.500       N(1)  =     2000
   RHO(2)=  100.500       N(2)  =     4000
 


--------------------------------------------------------------------------------------------------------


 ion  position               nearest neighbor table
   1  0.894  0.966  0.118- 107 1.09 117 1.35  65 1.40
   2  0.937  0.985  0.397- 112 1.09 118 1.35  65 1.40
   3  0.894  0.814  0.936- 116 1.09 119 1.35  66 1.40
   4  0.606  0.466  0.618- 110 1.09 120 1.35  67 1.40
   5  0.562  0.296  0.157- 111 1.09 121 1.35  68 1.40
   6  0.062  0.795  0.158- 115 1.09 122 1.35  69 1.40
   7  0.563  0.485  0.896- 101 1.09 123 1.35  67 1.40
   8  0.606  0.314  0.435- 113 1.09 124 1.35  68 1.40
   9  0.437  0.485  0.396- 114 1.09 125 1.35  70 1.40
  10  0.106  0.814  0.436- 104 1.09 126 1.35  69 1.40
  11  0.063  0.985  0.897- 105 1.09 127 1.35  71 1.40
  12  0.438  0.296  0.657- 102 1.09 128 1.35  72 1.40
  13  0.938  0.796  0.658- 108 1.09 129 1.35  66 1.40
  14  0.106  0.966  0.619- 109 1.09 130 1.35  71 1.40
  15  0.394  0.314  0.935- 106 1.09 131 1.35  72 1.40
  16  0.394  0.466  0.117- 103 1.09 132 1.35  70 1.40
  17  0.820  0.030  0.460- 141 1.23 133 1.42  33 1.48
  18  0.843  0.085  0.066- 142 1.23 133 1.42  34 1.48
  19  0.843  0.695  0.987- 143 1.23 134 1.42  35 1.48
  20  0.657  0.585  0.566- 144 1.23 135 1.42  36 1.48
  21  0.657  0.195  0.486- 145 1.23 136 1.42  37 1.48
  22  0.180  0.750  0.093- 146 1.23 137 1.42  38 1.48
  23  0.680  0.530  0.960- 147 1.23 135 1.42  39 1.48
  24  0.680  0.250  0.092- 148 1.23 136 1.42  40 1.48
  25  0.320  0.530  0.460- 149 1.23 138 1.42  41 1.48
  26  0.157  0.695  0.487- 150 1.23 137 1.42  42 1.48
  27  0.157  0.085  0.566- 151 1.23 139 1.42  43 1.48
  28  0.343  0.195  0.986- 152 1.23 140 1.42  44 1.48
  29  0.820  0.750  0.592- 153 1.23 134 1.42  45 1.48
  30  0.180  0.030  0.961- 154 1.23 139 1.42  46 1.48
  31  0.320  0.250  0.592- 155 1.23 140 1.42  47 1.48
  32  0.342  0.585  0.066- 156 1.23 138 1.42  48 1.48
  33  0.778  0.073  0.462-  49 1.39  73 1.42  17 1.48
  34  0.802  0.127  0.078-  50 1.39  73 1.42  18 1.48
  35  0.802  0.653  0.975-  51 1.39  74 1.42  19 1.48
  36  0.698  0.627  0.578-  52 1.39  75 1.42  20 1.48
  37  0.698  0.153  0.474-  53 1.39  76 1.42  21 1.48
  38  0.222  0.707  0.091-  54 1.39  77 1.42  22 1.48
  39  0.722  0.573  0.962-  55 1.39  75 1.42  23 1.48
  40  0.722  0.208  0.090-  56 1.39  76 1.42  24 1.48
  41  0.277  0.572  0.462-  57 1.39  78 1.42  25 1.48
  42  0.198  0.652  0.475-  58 1.39  77 1.42  26 1.48
  43  0.199  0.127  0.578-  59 1.39  79 1.42  27 1.48
  44  0.302  0.153  0.974-  60 1.39  80 1.42  28 1.48
  45  0.778  0.708  0.590-  61 1.39  74 1.42  29 1.48
  46  0.222  0.073  0.962-  62 1.39  79 1.42  30 1.48
  47  0.278  0.208  0.590-  63 1.39  80 1.42  31 1.48
  48  0.301  0.627  0.078-  64 1.39  78 1.42  32 1.48
  49  0.746  0.066  0.651-  88 1.09  33 1.39  53 1.40
  50  0.793  0.174  0.895-  99 1.09  34 1.39  56 1.40
  51  0.793  0.606  0.158-  93 1.09  35 1.39  55 1.40
  52  0.707  0.674  0.395-  90 1.09  36 1.39  61 1.40
  53  0.707  0.106  0.657-  98 1.09  37 1.39  49 1.40
  54  0.253  0.714  0.902-  96 1.09  38 1.39  64 1.40
  55  0.754  0.566  0.151-  86 1.09  39 1.39  51 1.40
  56  0.754  0.214  0.901-  87 1.09  40 1.39  50 1.40
  57  0.245  0.565  0.651-  95 1.09  41 1.39  58 1.40
  58  0.206  0.605  0.657-  91 1.09  42 1.39  57 1.40
  59  0.207  0.174  0.395-  92 1.09  43 1.39  63 1.40
  60  0.294  0.106  0.157-  85 1.09  44 1.39  62 1.40
  61  0.746  0.714  0.401-  89 1.09  45 1.39  52 1.40
  62  0.254  0.066  0.151- 100 1.09  46 1.39  60 1.40
  63  0.246  0.214  0.401-  94 1.09  47 1.39  59 1.40
  64  0.293  0.674  0.895-  97 1.09  48 1.39  54 1.40
  65  0.891  0.999  0.257-   2 1.40   1 1.40 133 1.42
  66  0.891  0.781  0.796-  13 1.40   3 1.40 134 1.42
  67  0.609  0.499  0.757-   7 1.40   4 1.40 135 1.42
  68  0.609  0.281  0.296-   5 1.40   8 1.40 136 1.42
  69  0.108  0.781  0.297-   6 1.40  10 1.40 137 1.42
  70  0.391  0.499  0.257-   9 1.40  16 1.40 138 1.42
  71  0.109  0.999  0.758-  11 1.40  14 1.40 139 1.42
  72  0.391  0.281  0.795-  12 1.40  15 1.40 140 1.42
  73  0.770  0.120  0.273-  33 1.42  34 1.42  76 1.43
  74  0.770  0.660  0.779-  45 1.42  35 1.42  75 1.43
  75  0.730  0.620  0.773-  39 1.42  36 1.42  74 1.43
  76  0.730  0.161  0.279-  40 1.42  37 1.42  73 1.43
  77  0.229  0.660  0.280-  38 1.42  42 1.42  78 1.43
  78  0.270  0.619  0.273-  41 1.42  48 1.42  77 1.43
  79  0.230  0.120  0.773-  46 1.42  43 1.42  80 1.43
  80  0.270  0.160  0.779-  47 1.42  44 1.42  79 1.43
  81  0.982  0.890  0.028- 117 1.95 119 1.95 122 1.96 127 1.96
  82  0.018  0.890  0.528- 130 1.95 126 1.95 129 1.96 118 1.96
  83  0.518  0.390  0.527- 120 1.95 124 1.95 128 1.96 125 1.96
  84  0.482  0.390  0.026- 132 1.95 131 1.95 121 1.96 123 1.96
  85  0.319  0.101  0.305-  60 1.09
  86  0.747  0.529  0.294-  55 1.09
  87  0.747  0.251  0.758-  56 1.09
  88  0.753  0.029  0.794-  49 1.09
  89  0.753  0.751  0.259-  61 1.09
  90  0.682  0.679  0.247-  52 1.09
  91  0.181  0.601  0.805-  58 1.09
  92  0.182  0.179  0.247-  59 1.09
  93  0.818  0.601  0.306-  51 1.09
  94  0.253  0.251  0.258-  63 1.09
  95  0.252  0.528  0.793-  57 1.09
  96  0.247  0.751  0.759-  54 1.09
  97  0.318  0.679  0.747-  64 1.09
  98  0.682  0.101  0.805-  53 1.09
  99  0.818  0.179  0.747-  50 1.09
 100  0.247  0.029  0.294-  62 1.09
 101  0.549  0.500  0.030-   7 1.09
 102  0.451  0.281  0.522-  12 1.09
 103  0.367  0.465  0.981-  16 1.09
 104  0.133  0.815  0.573-  10 1.09
 105  0.049  1.000  0.031-  11 1.09
 106  0.367  0.315  0.072-  15 1.09
 107  0.867  0.965  0.982-   1 1.09
 108  0.951  0.781  0.523-  13 1.09
 109  0.133  0.965  0.482-  14 1.09
 110  0.633  0.465  0.481-   4 1.09
 111  0.549  0.281  0.022-   5 1.09
 112  0.951  1.000  0.531-   2 1.09
 113  0.633  0.315  0.572-   8 1.09
 114  0.450  0.500  0.530-   9 1.09
 115  0.049  0.781  0.024-   6 1.09
 116  0.867  0.815  0.072-   3 1.09
 117  0.939  0.933  0.174-   1 1.35 118 1.37  81 1.95
 118  0.966  0.945  0.344-   2 1.35 117 1.37  82 1.96
 119  0.939  0.847  0.881-   3 1.35 129 1.37  81 1.95
 120  0.561  0.433  0.673-   4 1.35 123 1.37  83 1.95
 121  0.534  0.335  0.211-   5 1.35 124 1.37  84 1.96
 122  0.034  0.835  0.212-   6 1.35 126 1.37  81 1.96
 123  0.534  0.445  0.842-   7 1.35 120 1.37  84 1.96
 124  0.561  0.347  0.380-   8 1.35 121 1.37  83 1.95
 125  0.466  0.445  0.342-   9 1.35 132 1.37  83 1.96
 126  0.061  0.847  0.381-  10 1.35 122 1.37  82 1.95
 127  0.034  0.945  0.844-  11 1.35 130 1.37  81 1.96
 128  0.466  0.335  0.711-  12 1.35 131 1.37  83 1.96
 129  0.966  0.835  0.712-  13 1.35 119 1.37  82 1.96
 130  0.061  0.933  0.674-  14 1.35 127 1.37  82 1.95
 131  0.439  0.347  0.880-  15 1.35 128 1.37  84 1.95
 132  0.439  0.433  0.173-  16 1.35 125 1.37  84 1.95
 133  0.850  0.039  0.261-  18 1.42  17 1.42  65 1.42
 134  0.850  0.741  0.792-  19 1.42  29 1.42  66 1.42
 135  0.650  0.539  0.761-  20 1.42  23 1.42  67 1.42
 136  0.650  0.241  0.292-  21 1.42  24 1.42  68 1.42
 137  0.149  0.741  0.293-  26 1.42  22 1.42  69 1.42
 138  0.350  0.539  0.260-  32 1.42  25 1.42  70 1.42
 139  0.150  0.039  0.761-  27 1.42  30 1.42  71 1.42
 140  0.350  0.241  0.791-  28 1.42  31 1.42  72 1.42
 141  0.829  0.989  0.622-  17 1.23
 142  0.870  0.089  0.897-  18 1.23
 143  0.870  0.691  0.156-  19 1.23
 144  0.630  0.589  0.397-  20 1.23
 145  0.630  0.191  0.655-  21 1.23
 146  0.171  0.791  0.932-  22 1.23
 147  0.671  0.489  0.122-  23 1.23
 148  0.671  0.291  0.930-  24 1.23
 149  0.328  0.488  0.621-  25 1.23
 150  0.130  0.691  0.656-  26 1.23
 151  0.130  0.089  0.397-  27 1.23
 152  0.370  0.191  0.155-  28 1.23
 153  0.829  0.791  0.431-  29 1.23
 154  0.171  0.989  0.122-  30 1.23
 155  0.329  0.291  0.430-  31 1.23
 156  0.369  0.589  0.897-  32 1.23
 

IMPORTANT INFORMATION: All symmetrisations will be switched off!
NOSYMM: (Re-)initialisation of all symmetry stuff for point group C_1.


----------------------------------------------------------------------------------------

                                     Primitive cell                                     

  volume of cell :    3688.8765

  direct lattice vectors                    reciprocal lattice vectors
    24.142770667  0.001448647 -0.006359331     0.041420270 -0.000004621  0.000010115
     0.001628234 24.902539517  4.710006361    -0.000003947  0.041214874 -0.005595539
    -0.001442488  0.854966079  6.297396140     0.000044780 -0.030825812  0.162980868

  length of vectors
    24.142771548 25.344045395  6.355168544     0.041420271  0.041592979  0.165870419

  position of ions in fractional coordinates (direct lattice)
     0.893713361  0.966064750  0.118320815
     0.937497883  0.984688410  0.396680600
     0.893674141  0.814134271  0.935817741
     0.606342052  0.466074726  0.617800307
     0.562421979  0.295698368  0.156966566
     0.062262799  0.795449742  0.158164312
     0.562519844  0.484824538  0.895682039
     0.606323354  0.314233913  0.435251712
     0.437228870  0.484673240  0.395658036
     0.106256863  0.813908273  0.436413345
     0.062523972  0.984727927  0.896811038
     0.437595387  0.295651782  0.656633118
     0.937558112  0.795580230  0.657680452
     0.106257356  0.966058074  0.618585355
     0.393752142  0.314143354  0.935009191
     0.393544276  0.465927859  0.117345463
     0.820056437  0.030236831  0.460435546
     0.842973956  0.085206554  0.066095552
     0.842988071  0.695134190  0.986719049
     0.657124500  0.585145716  0.565825145
     0.657054710  0.195217527  0.486382219
     0.179589824  0.749823650  0.092972269
     0.679966258  0.530230165  0.960440846
     0.679845252  0.250161837  0.091937407
     0.319542537  0.529710849  0.459917002
     0.156707260  0.694719094  0.487190719
     0.157110162  0.085091904  0.566127608
     0.343138899  0.195112388  0.986115699
     0.820112010  0.750107222  0.592259344
     0.179999132  0.030237080  0.960726869
     0.320251256  0.250019093  0.591562009
     0.342368316  0.584790011  0.065525539
     0.777889132  0.072600701  0.461974895
     0.801558152  0.127381220  0.077847746
     0.801618033  0.652965797  0.974764225
     0.698487140  0.627329502  0.577804315
     0.698424181  0.153037359  0.474481453
     0.221627259  0.707388752  0.090883125
     0.722148634  0.572564217  0.962104501
     0.722022878  0.207800796  0.090263201
     0.277293441  0.571985274  0.461610462
     0.197938885  0.652459368  0.474846496
     0.198536752  0.127256132  0.577780728
     0.301774893  0.152922134  0.974314503
     0.777957023  0.707746673  0.590497220
     0.222230148  0.072549051  0.962072345
     0.278076139  0.207656765  0.589992910
     0.300960524  0.626919499  0.077594711
     0.746101677  0.065911667  0.650943953
     0.793420711  0.174429976  0.895066009
     0.793497761  0.605934978  0.157561644
     0.706604145  0.674369505  0.395022710
     0.706570080  0.106002527  0.657286328
     0.253365063  0.714124740  0.901733933
     0.753947770  0.565865414  0.151172851
     0.753824501  0.214491128  0.901302352
     0.245459043  0.565186203  0.650561094
     0.205973532  0.605294015  0.657244837
     0.206644421  0.174272411  0.394884820
     0.293671146  0.105897593  0.157174340
     0.746152053  0.714442278  0.401418092
     0.254080797  0.065851506  0.150997532
     0.246237302  0.214332375  0.401020999
     0.292841395  0.674020108  0.895026898
     0.891339310  0.999268858  0.257384168
     0.891302679  0.781066106  0.796189472
     0.608731840  0.499280565  0.756863724
     0.608670623  0.281142552  0.295701097
     0.108494142  0.780794501  0.296948787
     0.391012412  0.499067393  0.256615105
     0.108667966  0.999267334  0.757632143
     0.391394434  0.281068447  0.795405773
     0.770089109  0.119874971  0.273032369
     0.770154472  0.660485677  0.779459396
     0.729947168  0.619821682  0.773145883
     0.729859033  0.160539138  0.279230909
     0.229363355  0.660021710  0.279520681
     0.269518947  0.619333459  0.272906483
     0.230040126  0.119770530  0.772985349
     0.270280821  0.160422775  0.779075203
     0.982081073  0.890086877  0.027569914
     0.017940233  0.890053440  0.527675470
     0.517890002  0.390224206  0.526541714
     0.482085694  0.390203394  0.026300520
     0.318533095  0.101177575  0.305192994
     0.747130780  0.529017547  0.294012700
     0.747004727  0.251330254  0.758339607
     0.752927987  0.029044108  0.793761406
     0.752962626  0.751283598  0.258509162
     0.681782939  0.679072119  0.246893605
     0.181172393  0.600545177  0.805348826
     0.181774403  0.178978632  0.246882143
     0.818306009  0.601244576  0.305679610
     0.253028531  0.251161581  0.258035638
     0.252230847  0.528252596  0.793172381
     0.246587953  0.751055267  0.759094462
     0.317627417  0.678764030  0.746875363
     0.681784401  0.101315726  0.805381558
     0.818250796  0.179156807  0.747029936
     0.247255633  0.029019541  0.293925943
     0.549208237  0.499710306  0.029939700
     0.450924373  0.280897369  0.522054837
     0.366907935  0.465050806  0.980630863
     0.133027669  0.814609705  0.572961821
     0.049248326  0.999570616  0.031226619
     0.367036705  0.314895539  0.071555959
     0.867050879  0.965251263  0.981609470
     0.950909287  0.780813009  0.523158445
     0.132903199  0.965216157  0.481958524
     0.633031044  0.465203861  0.481334992
     0.549034521  0.280918721  0.022490770
     0.950798759  0.999516735  0.531143183
     0.633058417  0.314972061  0.571855952
     0.450466753  0.499556778  0.530062050
     0.048851858  0.780719238  0.023582229
     0.866931945  0.814904020  0.072266688
     0.938785489  0.933203625  0.174110252
     0.965861357  0.944864357  0.343535681
     0.938826932  0.846883216  0.880996886
     0.561202036  0.433325820  0.673168540
     0.534052992  0.335420990  0.210768662
     0.034001003  0.835243119  0.211889009
     0.534103652  0.445058943  0.842307362
     0.561194817  0.347038688  0.380151615
     0.465767331  0.444982586  0.342282490
     0.061191285  0.846809872  0.381279335
     0.034129758  0.944919281  0.843620836
     0.465966557  0.335364267  0.710539040
     0.965960645  0.835253784  0.711710915
     0.061177625  0.933231646  0.674275957
     0.438856043  0.346956100  0.879948229
     0.438749107  0.433254382  0.172873819
     0.850320017  0.039299782  0.260995430
     0.850301110  0.741071513  0.791975746
     0.649766736  0.539263883  0.760734267
     0.649669475  0.241128897  0.291574629
     0.149414411  0.740727783  0.292648031
     0.349843792  0.538927655  0.260449335
     0.149710150  0.039270857  0.761238081
     0.350426519  0.241033252  0.791295185
     0.828660592  0.989033472  0.622010026
     0.869715244  0.089167300  0.897333453
     0.869740771  0.691137373  0.155579359
     0.630415828  0.589091822  0.396898008
     0.630364564  0.191255663  0.655256825
     0.171046048  0.791125209  0.931717944
     0.671299431  0.489074948  0.122087854
     0.671214670  0.291360037  0.930364840
     0.328203919  0.488484021  0.621340289
     0.130056724  0.690736892  0.656190056
     0.130395772  0.089006993  0.397246357
     0.369893181  0.191154394  0.154945408
     0.828734480  0.791294818  0.430687745
     0.171377560  0.989095395  0.122471872
     0.328883180  0.291178055  0.429884711
     0.369061235  0.588798917  0.896604500

  ion indices of the primitive-cell ions
   primitive index   ion index
                 1           1
                 2           2
                 3           3
                 4           4
                 5           5
                 6           6
                 7           7
                 8           8
                 9           9
                10          10
                11          11
                12          12
                13          13
                14          14
                15          15
                16          16
                17          17
                18          18
                19          19
                20          20
                21          21
                22          22
                23          23
                24          24
                25          25
                26          26
                27          27
                28          28
                29          29
                30          30
                31          31
                32          32
                33          33
                34          34
                35          35
                36          36
                37          37
                38          38
                39          39
                40          40
                41          41
                42          42
                43          43
                44          44
                45          45
                46          46
                47          47
                48          48
                49          49
                50          50
                51          51
                52          52
                53          53
                54          54
                55          55
                56          56
                57          57
                58          58
                59          59
                60          60
                61          61
                62          62
                63          63
                64          64
                65          65
                66          66
                67          67
                68          68
                69          69
                70          70
                71          71
                72          72
                73          73
                74          74
                75          75
                76          76
                77          77
                78          78
                79          79
                80          80
                81          81
                82          82
                83          83
                84          84
                85          85
                86          86
                87          87
                88          88
                89          89
                90          90
                91          91
                92          92
                93          93
                94          94
                95          95
                96          96
                97          97
                98          98
                99          99
               100         100
               101         101
               102         102
               103         103
               104         104
               105         105
               106         106
               107         107
               108         108
               109         109
               110         110
               111         111
               112         112
               113         113
               114         114
               115         115
               116         116
               117         117
               118         118
               119         119
               120         120
               121         121
               122         122
               123         123
               124         124
               125         125
               126         126
               127         127
               128         128
               129         129
               130         130
               131         131
               132         132
               133         133
               134         134
               135         135
               136         136
               137         137
               138         138
               139         139
               140         140
               141         141
               142         142
               143         143
               144         144
               145         145
               146         146
               147         147
               148         148
               149         149
               150         150
               151         151
               152         152
               153         153
               154         154
               155         155
               156         156

----------------------------------------------------------------------------------------

 
 

Automatic generation of k-mesh.
 generate k-points for:    1    1    4
Space group operators:
 irot       det(A)        alpha          n_x          n_y          n_z        tau_x        tau_y        tau_z
    1     1.000000     0.000000     1.000000     0.000000     0.000000     0.000000     0.000000     0.000000
 
 Subroutine IBZKPT returns following result:
 ===========================================
 
 Found      3 irreducible k-points:
 
 Following reciprocal coordinates:
            Coordinates               Weight
  0.000000  0.000000  0.000000      1.000000
  0.000000 -0.000000  0.250000      2.000000
  0.000000 -0.000000  0.500000      1.000000
 
 Following cartesian coordinates:
            Coordinates               Weight
  0.000000  0.000000  0.000000      1.000000
  0.000011 -0.007706  0.040745      2.000000
  0.000022 -0.015413  0.081490      1.000000
 


--------------------------------------------------------------------------------------------------------




 Dimension of arrays:
   k-points           NKPTS =      3   k-points in BZ     NKDIM =      3   number of bands    NBANDS=    384
   number of dos      NEDOS =    301   number of ions     NIONS =    156
   non local maximal  LDIM  =      6   non local SUM 2l+1 LMDIM =     18
   total plane-waves  NPLWV = 960000
   max r-space proj   IRMAX =   2482   max aug-charges    IRDMAX=  10462
   dimension x,y,z NGX =   150 NGY =  160 NGZ =   40
   dimension x,y,z NGXF=   300 NGYF=  320 NGZF=   80
   support grid    NGXF=   300 NGYF=  320 NGZF=   80
   ions per type =              80   4  32  24  16
   NGX,Y,Z   is equivalent  to a cutoff of  10.33, 10.50, 10.46 a.u.
   NGXF,Y,Z  is equivalent  to a cutoff of  20.66, 20.99, 20.93 a.u.

 SYSTEM =  flex_MOF                                
 POSCAR =  CoH_exp5	                               

 Startparameter for this run:
   NWRITE =      2    write-flag & timer
   PREC   = normal    normal or accurate (medium, high low for compatibility)
   ISTART =      0    job   : 0-new  1-cont  2-samecut
   ICHARG =      2    charge: 1-file 2-atom 10-const
   ISPIN  =      2    spin polarized calculation?
   LNONCOLLINEAR =      F non collinear calculations
   LSORBIT =      F    spin-orbit coupling
   INIWAV =      1    electr: 0-lowe 1-rand  2-diag
   LASPH  =      F    aspherical Exc in radial PAW
   METAGGA=      F    non-selfconsistent MetaGGA calc.

 Electronic Relaxation 1
   ENCUT  =  600.0 eV  44.10 Ry    6.64 a.u.  48.22 50.62 12.69*2*pi/ulx,y,z
   ENINI  =  600.0     initial cutoff
   ENAUG  =  644.9 eV  augmentation charge cutoff
   NELM   =     80;   NELMIN=  8; NELMDL= -5     # of ELM steps 
   EDIFF  = 0.1E-05   stopping-criterion for ELM
   LREAL  =      T    real-space projection
   NLSPLINE    = F    spline interpolate recip. space projectors
   LCOMPAT=      F    compatible to vasp.4.4
   GGA_COMPAT  = T    GGA compatible to vasp.4.4-vasp.4.6
   LMAXPAW     = -100 max onsite density
   LMAXMIX     =    2 max onsite mixed and CHGCAR
   VOSKOWN=      0    Vosko Wilk Nusair interpolation
   ROPT   =   -0.00050  -0.00050  -0.00050  -0.00050
   ROPT   =   -0.00050
 Ionic relaxation
   EDIFFG = -.1E-01   stopping-criterion for IOM
   NSW    =    500    number of steps for IOM
   NBLOCK =      1;   KBLOCK =    500    inner block; outer block 
   IBRION =      2    ionic relax: 0-MD 1-quasi-New 2-CG
   NFREE  =      1    steps in history (QN), initial steepest desc. (CG)
   ISIF   =      4    stress and relaxation
   IWAVPR =     11    prediction:  0-non 1-charg 2-wave 3-comb
   ISYM   =      0    0-nonsym 1-usesym 2-fastsym
   LCORR  =      T    Harris-Foulkes like correction to forces

   POTIM  = 0.5000    time-step for ionic-motion
   TEIN   =    0.0    initial temperature
   TEBEG  =    0.0;   TEEND  =   0.0 temperature during run
   SMASS  =  -3.00    Nose mass-parameter (am)
   estimated Nose-frequenzy (Omega)   =  0.10E-29 period in steps = 0.13E+47 mass=  -0.133E-25a.u.
   SCALEE = 1.0000    scale energy and forces
   NPACO  =    256;   APACO  = 16.0  distance and # of slots for P.C.
   PSTRESS=    0.0 pullay stress

  Mass of Ions in am
   POMASS =  12.01 58.93  1.00 14.00 16.00
  Ionic Valenz
   ZVAL   =   4.00  9.00  1.00  5.00  6.00
  Atomic Wigner-Seitz radii
   RWIGS  =  -1.00 -1.00 -1.00 -1.00 -1.00
  virtual crystal weights 
   VCA    =   1.00  1.00  1.00  1.00  1.00
   NELECT =     604.0000    total number of electrons
   NUPDOWN=      -1.0000    fix difference up-down

 DOS related values:
   EMIN   =  10.00;   EMAX   =-10.00  energy-range for DOS
   EFERMI =   0.00
   ISMEAR =     0;   SIGMA  =   0.05  broadening in eV -4-tet -1-fermi 0-gaus

 Electronic relaxation 2 (details)
   IALGO  =     38    algorithm
   LDIAG  =      T    sub-space diagonalisation (order eigenvalues)
   LSUBROT=      F    optimize rotation matrix (better conditioning)
   TURBO    =      0    0=normal 1=particle mesh
   IRESTART =      0    0=no restart 2=restart with 2 vectors
   NREBOOT  =      0    no. of reboots
   NMIN     =      0    reboot dimension
   EREF     =   0.00    reference energy to select bands
   IMIX   =      4    mixing-type and parameters
     AMIX     =   0.40;   BMIX     =  1.00
     AMIX_MAG =   1.60;   BMIX_MAG =  1.00
     AMIN     =   0.10
     WC   =   100.;   INIMIX=   1;  MIXPRE=   1;  MAXMIX= -45

 Intra band minimization:
   WEIMIN = 0.0010     energy-eigenvalue tresh-hold
   EBREAK =  0.65E-09  absolut break condition
   DEPER  =   0.30     relativ break condition  

   TIME   =   0.40     timestep for ELM

  volume/ion in A,a.u.               =      23.65       159.58
  Fermi-wavevector in a.u.,A,eV,Ry     =   0.895617  1.692471 10.913644  0.802130
  Thomas-Fermi vector in A             =   2.017972
 
 Write flags
   LWAVE        =      T    write WAVECAR
   LDOWNSAMPLE  =      F    k-point downsampling of WAVECAR
   LCHARG       =      T    write CHGCAR
   LVTOT        =      F    write LOCPOT, total local potential
   LVHAR        =      F    write LOCPOT, Hartree potential only
   LELF         =      F    write electronic localiz. function (ELF)
   LORBIT       =     11    0 simple, 1 ext, 2 COOP (PROOUT), +10 PAW based schemes


 Dipole corrections
   LMONO  =      F    monopole corrections only (constant potential shift)
   LDIPOL =      F    correct potential (dipole corrections)
   IDIPOL =      0    1-x, 2-y, 3-z, 4-all directions 
   EPSILON=  1.0000000 bulk dielectric constant

 Exchange correlation treatment:
   GGA     =    PE    GGA type
   LEXCH   =     8    internal setting for exchange type
   VOSKOWN=      0    Vosko Wilk Nusair interpolation
   LHFCALC =     F    Hartree Fock is set to
   LHFONE  =     F    Hartree Fock one center treatment
   AEXX    =    0.0000 exact exchange contribution

 Linear response parameters
   LEPSILON=     F    determine dielectric tensor
   LRPA    =     F    only Hartree local field effects (RPA)
   LNABLA  =     F    use nabla operator in PAW spheres
   LVEL    =     F    velocity operator in full k-point grid
   LINTERFAST=   F  fast interpolation
   KINTER  =     0    interpolate to denser k-point grid
   CSHIFT  =0.1000    complex shift for real part using Kramers Kronig
   OMEGAMAX=  -1.0    maximum frequency
   DEG_THRESHOLD= 0.2000000E-02 threshold for treating states as degnerate
   RTIME   =   -0.100 relaxation time in fs
  (WPLASMAI=    0.000 imaginary part of plasma frequency in eV, 0.658/RTIME)
   DFIELD  = 0.0000000 0.0000000 0.0000000 field for delta impulse in time
 
 Orbital magnetization related:
   ORBITALMAG=     F  switch on orbital magnetization
   LCHIMAG   =     F  perturbation theory with respect to B field
   DQ        =  0.001000  dq finite difference perturbation B field
   LLRAUG    =     F  two centre corrections for induced B field



--------------------------------------------------------------------------------------------------------


 conjugate gradient relaxation of ions
 charge density and potential will be updated during run
 spin polarized calculation
 Variant of blocked Davidson
 Davidson routine will perform the subspace rotation
 perform sub-space diagonalisation
    after iterative eigenvector-optimisation
 modified Broyden-mixing scheme, WC =      100.0
 initial mixing is a Kerker type mixing with AMIX =  0.4000 and BMIX =      1.0000
 Hartree-type preconditioning will be used
 using additional bands           82
 real space projection scheme for non local part
 use partial core corrections
 calculate Harris-corrections to forces 
   (improved forces if not selfconsistent)
 use gradient corrections 
 use of overlap-Matrix (Vanderbilt PP)
 Gauss-broadening in eV      SIGMA  =   0.05


--------------------------------------------------------------------------------------------------------


  energy-cutoff  :      600.00
  volume of cell :     3688.88
      direct lattice vectors                 reciprocal lattice vectors
    24.142770667  0.001448647 -0.006359331     0.041420270 -0.000004621  0.000010115
     0.001628234 24.902539517  4.710006361    -0.000003947  0.041214874 -0.005595539
    -0.001442488  0.854966079  6.297396140     0.000044780 -0.030825812  0.162980868

  length of vectors
    24.142771548 25.344045395  6.355168544     0.041420271  0.041592979  0.165870419


 
 k-points in units of 2pi/SCALE and weight: read from INCAR                         
   0.00000000  0.00000000  0.00000000       0.250
   0.00001119 -0.00770645  0.04074522       0.500
   0.00002239 -0.01541291  0.08149043       0.250
 
 k-points in reciprocal lattice and weights: read from INCAR                         
   0.00000000  0.00000000  0.00000000       0.250
   0.00000000 -0.00000000  0.25000000       0.500
   0.00000000 -0.00000000  0.50000000       0.250
 
 position of ions in fractional coordinates (direct lattice) 
   0.89371336  0.96606475  0.11832082
   0.93749788  0.98468841  0.39668060
   0.89367414  0.81413427  0.93581774
   0.60634205  0.46607473  0.61780031
   0.56242198  0.29569837  0.15696657
   0.06226280  0.79544974  0.15816431
   0.56251984  0.48482454  0.89568204
   0.60632335  0.31423391  0.43525171
   0.43722887  0.48467324  0.39565804
   0.10625686  0.81390827  0.43641334
   0.06252397  0.98472793  0.89681104
   0.43759539  0.29565178  0.65663312
   0.93755811  0.79558023  0.65768045
   0.10625736  0.96605807  0.61858535
   0.39375214  0.31414335  0.93500919
   0.39354428  0.46592786  0.11734546
   0.82005644  0.03023683  0.46043555
   0.84297396  0.08520655  0.06609555
   0.84298807  0.69513419  0.98671905
   0.65712450  0.58514572  0.56582514
   0.65705471  0.19521753  0.48638222
   0.17958982  0.74982365  0.09297227
   0.67996626  0.53023016  0.96044085
   0.67984525  0.25016184  0.09193741
   0.31954254  0.52971085  0.45991700
   0.15670726  0.69471909  0.48719072
   0.15711016  0.08509190  0.56612761
   0.34313890  0.19511239  0.98611570
   0.82011201  0.75010722  0.59225934
   0.17999913  0.03023708  0.96072687
   0.32025126  0.25001909  0.59156201
   0.34236832  0.58479001  0.06552554
   0.77788913  0.07260070  0.46197490
   0.80155815  0.12738122  0.07784775
   0.80161803  0.65296580  0.97476423
   0.69848714  0.62732950  0.57780432
   0.69842418  0.15303736  0.47448145
   0.22162726  0.70738875  0.09088312
   0.72214863  0.57256422  0.96210450
   0.72202288  0.20780080  0.09026320
   0.27729344  0.57198527  0.46161046
   0.19793889  0.65245937  0.47484650
   0.19853675  0.12725613  0.57778073
   0.30177489  0.15292213  0.97431450
   0.77795702  0.70774667  0.59049722
   0.22223015  0.07254905  0.96207234
   0.27807614  0.20765677  0.58999291
   0.30096052  0.62691950  0.07759471
   0.74610168  0.06591167  0.65094395
   0.79342071  0.17442998  0.89506601
   0.79349776  0.60593498  0.15756164
   0.70660414  0.67436951  0.39502271
   0.70657008  0.10600253  0.65728633
   0.25336506  0.71412474  0.90173393
   0.75394777  0.56586541  0.15117285
   0.75382450  0.21449113  0.90130235
   0.24545904  0.56518620  0.65056109
   0.20597353  0.60529402  0.65724484
   0.20664442  0.17427241  0.39488482
   0.29367115  0.10589759  0.15717434
   0.74615205  0.71444228  0.40141809
   0.25408080  0.06585151  0.15099753
   0.24623730  0.21433238  0.40102100
   0.29284140  0.67402011  0.89502690
   0.89133931  0.99926886  0.25738417
   0.89130268  0.78106611  0.79618947
   0.60873184  0.49928057  0.75686372
   0.60867062  0.28114255  0.29570110
   0.10849414  0.78079450  0.29694879
   0.39101241  0.49906739  0.25661511
   0.10866797  0.99926733  0.75763214
   0.39139443  0.28106845  0.79540577
   0.77008911  0.11987497  0.27303237
   0.77015447  0.66048568  0.77945940
   0.72994717  0.61982168  0.77314588
   0.72985903  0.16053914  0.27923091
   0.22936335  0.66002171  0.27952068
   0.26951895  0.61933346  0.27290648
   0.23004013  0.11977053  0.77298535
   0.27028082  0.16042278  0.77907520
   0.98208107  0.89008688  0.02756991
   0.01794023  0.89005344  0.52767547
   0.51789000  0.39022421  0.52654171
   0.48208569  0.39020339  0.02630052
   0.31853310  0.10117757  0.30519299
   0.74713078  0.52901755  0.29401270
   0.74700473  0.25133025  0.75833961
   0.75292799  0.02904411  0.79376141
   0.75296263  0.75128360  0.25850916
   0.68178294  0.67907212  0.24689360
   0.18117239  0.60054518  0.80534883
   0.18177440  0.17897863  0.24688214
   0.81830601  0.60124458  0.30567961
   0.25302853  0.25116158  0.25803564
   0.25223085  0.52825260  0.79317238
   0.24658795  0.75105527  0.75909446
   0.31762742  0.67876403  0.74687536
   0.68178440  0.10131573  0.80538156
   0.81825080  0.17915681  0.74702994
   0.24725563  0.02901954  0.29392594
   0.54920824  0.49971031  0.02993970
   0.45092437  0.28089737  0.52205484
   0.36690794  0.46505081  0.98063086
   0.13302767  0.81460970  0.57296182
   0.04924833  0.99957062  0.03122662
   0.36703670  0.31489554  0.07155596
   0.86705088  0.96525126  0.98160947
   0.95090929  0.78081301  0.52315845
   0.13290320  0.96521616  0.48195852
   0.63303104  0.46520386  0.48133499
   0.54903452  0.28091872  0.02249077
   0.95079876  0.99951674  0.53114318
   0.63305842  0.31497206  0.57185595
   0.45046675  0.49955678  0.53006205
   0.04885186  0.78071924  0.02358223
   0.86693195  0.81490402  0.07226669
   0.93878549  0.93320363  0.17411025
   0.96586136  0.94486436  0.34353568
   0.93882693  0.84688322  0.88099689
   0.56120204  0.43332582  0.67316854
   0.53405299  0.33542099  0.21076866
   0.03400100  0.83524312  0.21188901
   0.53410365  0.44505894  0.84230736
   0.56119482  0.34703869  0.38015162
   0.46576733  0.44498259  0.34228249
   0.06119128  0.84680987  0.38127934
   0.03412976  0.94491928  0.84362084
   0.46596656  0.33536427  0.71053904
   0.96596064  0.83525378  0.71171091
   0.06117762  0.93323165  0.67427596
   0.43885604  0.34695610  0.87994823
   0.43874911  0.43325438  0.17287382
   0.85032002  0.03929978  0.26099543
   0.85030111  0.74107151  0.79197575
   0.64976674  0.53926388  0.76073427
   0.64966947  0.24112890  0.29157463
   0.14941441  0.74072778  0.29264803
   0.34984379  0.53892765  0.26044933
   0.14971015  0.03927086  0.76123808
   0.35042652  0.24103325  0.79129519
   0.82866059  0.98903347  0.62201003
   0.86971524  0.08916730  0.89733345
   0.86974077  0.69113737  0.15557936
   0.63041583  0.58909182  0.39689801
   0.63036456  0.19125566  0.65525683
   0.17104605  0.79112521  0.93171794
   0.67129943  0.48907495  0.12208785
   0.67121467  0.29136004  0.93036484
   0.32820392  0.48848402  0.62134029
   0.13005672  0.69073689  0.65619006
   0.13039577  0.08900699  0.39724636
   0.36989318  0.19115439  0.15494541
   0.82873448  0.79129482  0.43068775
   0.17137756  0.98909540  0.12247187
   0.32888318  0.29117805  0.42988471
   0.36906123  0.58879892  0.89660450
 
 position of ions in cartesian coordinates  (Angst):
  21.57811901 24.15992057  5.28960074
  22.63482748 24.86174861  7.12998169
  21.57574554 21.07539790  9.72210946
  14.63864481 12.13552098  6.08189227
  13.57867991  7.49865613  2.37764522
   1.50426351 19.94403394  4.74220072
  13.58028499 12.83995487  7.92041403
  14.63820949  8.19822623  4.21714037
  10.55613476 12.40850210  4.77164895
   2.56603079 20.64165546  6.58110513
   1.50981164 25.28905972 10.28525156
  10.56429927  7.92451314  5.52481782
  22.63559719 20.37562078  7.88290004
   2.56602765 24.58632279  8.44494097
   9.50543043  8.62293883  7.36523646
   9.50183858 11.70368343  2.93099137
  19.79781956  1.14781863  3.03674569
  20.35177028  2.17959021  0.81219253
  20.35177618 18.15543914  9.48248635
  15.86494266 15.05632756  6.31508625
  15.86273743  5.27820432  3.97823888
   4.33688272 18.75226138  4.11601530
  16.41574733 14.02620701  8.54133980
  16.41362272  6.30925326  1.75290676
   7.71484125 13.58482169  5.38918895
   3.78377583 17.71702824  6.33916775
   3.79239654  2.60325199  3.96491410
   8.28321897  5.70238651  7.12675965
  19.80014320 19.18712445  7.25748613
   4.34434116  1.57462972  6.19134984
   7.73130640  6.73233973  4.90085525
   8.26657739 14.61927445  3.16482772
  18.77985073  2.20404157  3.24624183
  19.35192975  3.23983423  1.08510708
  19.35293743 17.09505816  9.20885177
  16.86360281 16.11711267  6.58894670
  16.86145957  4.21769619  3.70436309
   5.35171678 17.69379940  3.90272316
  17.43421330 15.08191590  8.75094189
  17.43184091  5.25298546  1.54257462
   6.69489741 14.63894889  5.59923482
   4.77917051 16.65415958  6.06212551
   4.79260104  3.66327139  4.23662876
   7.28452560  4.64159251  6.85398953
  18.78233860 18.13067157  7.04713896
   5.36398184  2.62951676  6.39884393
   6.71301550  5.67600756  4.69171538
   7.26692975 15.67866442  3.43952555
  18.01213003  2.19898374  4.40495160
  19.15436716  5.11014984  6.45310590
  19.15799380 15.22517910  3.84113958
  17.05991003 17.13226790  5.65940562
  17.05778387  3.20271319  4.63397165
   6.11679664 18.55483853  9.04049663
  18.20309140 14.22182569  3.61243042
  18.19846118  6.11304875  6.68131871
   5.92604320 14.63113501  6.75731058
   4.97280925 15.63557856  6.98855991
   4.98868300  4.67773809  3.30625619
   7.08998084  2.77192315  1.48669987
  18.01476214 18.13570683  5.88817139
   6.13410382  1.76933557  1.25943650
   5.94462122  5.68063651  3.53332904
   7.06980904 17.55045423  8.80911565
  21.52065631 25.10567819  6.32174442
  21.51863945 20.13253574  8.68707874
  14.69619440 13.08132865  7.11401420
  14.69502649  7.25485967  3.18245942
   2.62019216 19.69780424  5.54686127
   9.44056543 12.64800913  3.96413099
   2.62407994 25.53220147  9.47697417
   9.44865635  7.67993006  6.33033041
  18.59188609  3.21974019  2.27910761
  18.59361386 17.11529771  8.01455867
  17.62284103 16.09720487  7.78352799
  17.62067786  4.23762249  2.50992660
   5.53813834 16.67552967  4.86750031
   6.50754889 15.65669217  4.63395081
   5.55288600  3.64379987  5.43045201
   6.52446528  4.66140892  5.66001866
  23.71156763 22.19041765  4.35968815
   0.43381498 22.61576157  7.51502474
  12.50317539 10.16849925  5.15050682
  11.63948177  9.74023987  2.00041952
   7.68999597  2.78096966  2.39644255
  18.03824433 13.42633358  4.33843920
  18.03407913  6.90819838  5.95458156
  18.17667001  1.40300186  5.13063983
  18.17945436 18.93097684  5.16169679
  16.46087868 17.12269361  4.74888515
   4.37381964 15.64390840  7.89902006
   4.38847302  4.66836165  2.39654919
  19.75671234 15.23504795  4.75164749
   6.10884653  6.47553945  2.80631618
   6.08926747 13.83333201  7.48138976
   5.95344430 19.35254070  8.31622548
   7.66843372 17.54196132  7.89833303
  16.45916764  3.21258044  5.54466873
  19.75405545  5.10133008  5.54296961
   5.96905931  0.97431517  1.98607794
  13.26017897 12.47044868  2.53868827
  10.88626803  7.44205023  4.60774693
   8.85751680 12.41988373  8.36347998
   3.21215639 20.77590600  7.44413848
   1.19057354 24.91861580  4.90431716
   8.86169249  7.90340823  1.93144211
  20.93316623 24.87770658 10.72240941
  22.95810154 19.89288708  6.96612307
   3.20952783 24.44858422  7.58041282
  15.28318647 11.99719967  5.21824461
  13.25563949  7.01561375  1.46127076
  22.95577766 25.34599177  8.04650277
  15.28347214  8.33343871  5.08069805
  10.87556429 12.89407004  5.68806164
   1.18065639 19.46212446  3.82538855
  20.93136175 20.35622102  4.28778197
  22.66615109 23.38935848  5.48586619
  23.31961216 23.82463253  6.60755517
  22.66599142 21.84412522  9.53084141
  13.54870657 11.36726261  6.27660746
  12.89376102  8.53380816  2.90373253
   0.82193275 20.98088195  5.26813321
  12.89425162 11.80401588  7.39717705
  13.54881445  8.96797434  4.02495092
  11.24514467 11.37451109  4.24839727
   1.47815597 21.41378584  6.38915776
   0.82430855 24.25220637  9.76297338
  11.24924483  8.95958371  6.05115041
  23.32129967 21.40982839  8.40983334
   1.47754425 23.81640964  8.64132075
  10.59449641  9.39304962  7.17275718
  10.59307515 10.93757122  3.12649566
  20.52876867  1.20303844  1.82328637
  20.52868893 19.13290681  8.47242920
  15.68695000 14.08038344  7.32644928
  15.68479316  6.25494945  2.96774812
   3.60806179 18.69642348  5.33080298
   8.44670025 13.64384936  4.17628054
   3.61338369  1.62899368  4.97783168
   8.45951810  6.67937827  6.11613892
  20.00687578 25.16244303  8.57012775
  20.99618647  2.98894179  6.06531196
  20.99885288 17.34535077  4.22947531
  15.22037141 15.01012997  5.27004119
  15.21811331  5.32388723  5.02321849
   4.12946966 20.49786180  9.59251401
  16.20764842 12.28456166  3.06811268
  16.20411420  8.05200756  7.22691510
   7.92365105 12.69619296  6.21150163
   3.14010779 17.76231139  7.38483681
   3.14768713  2.55632121  2.92001195
   8.93033398  4.89323875  1.87373875
  20.00861365 20.07467442  6.43394477
   4.13896295 24.73594473  5.42880965
   7.94000520  7.61908630  4.07651333
   8.90982611 15.42968937  8.41717338
 


--------------------------------------------------------------------------------------------------------


 k-point  1 :   0.0000 0.0000 0.0000  plane waves:  123169
 k-point  2 :   0.0000-0.0000 0.2500  plane waves:  123062
 k-point  3 :   0.0000-0.0000 0.5000  plane waves:  123130

 maximum and minimum number of plane-waves per node :     30845    30647

 maximum number of plane-waves:    123169
 maximum index in each direction: 
   IXMAX=   48   IYMAX=   50   IZMAX=   12
   IXMIN=  -48   IYMIN=  -50   IZMIN=  -13


 real space projection operators:
  total allocation   :      13239.95 KBytes
  max/ min on nodes  :       3349.66       3270.48


 parallel 3D FFT for wavefunctions:
    minimum data exchange during FFTs selected (reduces bandwidth)
 parallel 3D FFT for charge:
    minimum data exchange during FFTs selected (reduces bandwidth)


 total amount of memory used by VASP MPI-rank0   111671. kBytes
=======================================================================

   base      :      30000. kBytes
   nonlr-proj:       6744. kBytes
   fftplans  :      10003. kBytes
   grid      :      27806. kBytes
   one-center:       1213. kBytes
   wavefun   :      35905. kBytes
 
     INWAV:  cpu time    0.0003: real time    0.0002
 Broyden mixing: mesh for mixing (old mesh)
   NGX = 97   NGY =101   NGZ = 25
  (NGX  =300   NGY  =320   NGZ  = 80)
  gives a total of 244925 points

 initial charge density was supplied:
 charge density of overlapping atoms calculated
 number of electron     604.0000000 magnetization      -0.0000000
 keeping initial charge density in first step


--------------------------------------------------------------------------------------------------------


 Maximum index for non-local projection operator          702
 Maximum index for augmentation-charges          475 (set IRDMAX)


--------------------------------------------------------------------------------------------------------


 First call to EWALD:  gamma=   0.115
 Maximum number of real-space cells 2x 2x 6
 Maximum number of reciprocal cells 4x 4x 1

    FEWALD:  cpu time    0.0155: real time    0.0157


--------------------------------------- Iteration      1(   1)  ---------------------------------------


    POTLOK:  cpu time    0.4171: real time    0.4545
    SETDIJ:  cpu time    0.0803: real time    0.0803
     EDDAV:  cpu time   16.8747: real time   17.0086
       DOS:  cpu time    0.0079: real time    0.0083
    --------------------------------------------
      LOOP:  cpu time   17.3801: real time   17.5518

 eigenvalue-minimisations  :  4608
 total energy-change (2. order) : 0.5499918E+04  (-0.2734761E+05)
 number of electron     604.0000000 magnetization      -0.0000000
 augmentation part      604.0000000 magnetization      -0.0000000

 Free energy of the ion-electron system (eV)
  ---------------------------------------------------
  alpha Z        PSCENC =       457.94753084
  Ewald energy   TEWEN  =     41788.36614230
  -Hartree energ DENC   =    -65731.43684391
  -exchange      EXHF   =         0.00000000
  -V(xc)+E(xc)   XCENC  =      2116.45293818
  PAW double counting   =     22087.95224925   -22402.63741193
  entropy T*S    EENTRO =        -0.03759932
  eigenvalues    EBANDS =     -1508.49977519
  atomic energy  EATOM  =     28691.81066055
  Solvation  Ediel_sol  =         0.00000000
  ---------------------------------------------------
  free energy    TOTEN  =      5499.91789077 eV

  energy without entropy =     5499.95549008  energy(sigma->0) =     5499.93669043


--------------------------------------------------------------------------------------------------------




--------------------------------------- Iteration      1(   2)  ---------------------------------------


     EDDAV:  cpu time   22.5304: real time   22.5665
       DOS:  cpu time    0.0029: real time    0.0029
    --------------------------------------------
      LOOP:  cpu time   22.5333: real time   22.5694

 eigenvalue-minimisations  :  6528
 total energy-change (2. order) :-0.5799632E+04  (-0.5570070E+04)
 number of electron     604.0000000 magnetization      -0.0000000
 augmentation part      604.0000000 magnetization      -0.0000000

 Free energy of the ion-electron system (eV)
  ---------------------------------------------------
  alpha Z        PSCENC =       457.94753084
  Ewald energy   TEWEN  =     41788.36614230
  -Hartree energ DENC   =    -65731.43684391
  -exchange      EXHF   =         0.00000000
  -V(xc)+E(xc)   XCENC  =      2116.45293818
  PAW double counting   =     22087.95224925   -22402.63741193
  entropy T*S    EENTRO =        -0.00000000
  eigenvalues    EBANDS =     -7308.16904134
  atomic energy  EATOM  =     28691.81066055
  Solvation  Ediel_sol  =         0.00000000
  ---------------------------------------------------
  free energy    TOTEN  =      -299.71377606 eV

  energy without entropy =     -299.71377606  energy(sigma->0) =     -299.71377606


--------------------------------------------------------------------------------------------------------




--------------------------------------- Iteration      1(   3)  ---------------------------------------


     EDDAV:  cpu time   18.7785: real time   18.8008
       DOS:  cpu time    0.0044: real time    0.0044
    --------------------------------------------
      LOOP:  cpu time   18.7829: real time   18.8052

 eigenvalue-minimisations  :  5408
 total energy-change (2. order) :-0.9613147E+03  (-0.9541306E+03)
 number of electron     604.0000000 magnetization      -0.0000000
 augmentation part      604.0000000 magnetization      -0.0000000

 Free energy of the ion-electron system (eV)
  ---------------------------------------------------
  alpha Z        PSCENC =       457.94753084
  Ewald energy   TEWEN  =     41788.36614230
  -Hartree energ DENC   =    -65731.43684391
  -exchange      EXHF   =         0.00000000
  -V(xc)+E(xc)   XCENC  =      2116.45293818
  PAW double counting   =     22087.95224925   -22402.63741193
  entropy T*S    EENTRO =        -0.06823554
  eigenvalues    EBANDS =     -8269.41549761
  atomic energy  EATOM  =     28691.81066055
  Solvation  Ediel_sol  =         0.00000000
  ---------------------------------------------------
  free energy    TOTEN  =     -1261.02846787 eV

  energy without entropy =    -1260.96023233  energy(sigma->0) =    -1260.99435010


--------------------------------------------------------------------------------------------------------




--------------------------------------- Iteration      1(   4)  ---------------------------------------


     EDDAV:  cpu time   21.1320: real time   21.1572
       DOS:  cpu time    0.0030: real time    0.0030
    --------------------------------------------
      LOOP:  cpu time   21.1350: real time   21.1602

 eigenvalue-minimisations  :  6144
 total energy-change (2. order) :-0.3452868E+02  (-0.3426958E+02)
 number of electron     604.0000000 magnetization      -0.0000000
 augmentation part      604.0000000 magnetization      -0.0000000

 Free energy of the ion-electron system (eV)
  ---------------------------------------------------
  alpha Z        PSCENC =       457.94753084
  Ewald energy   TEWEN  =     41788.36614230
  -Hartree energ DENC   =    -65731.43684391
  -exchange      EXHF   =         0.00000000
  -V(xc)+E(xc)   XCENC  =      2116.45293818
  PAW double counting   =     22087.95224925   -22402.63741193
  entropy T*S    EENTRO =        -0.07667581
  eigenvalues    EBANDS =     -8303.93573576
  atomic energy  EATOM  =     28691.81066055
  Solvation  Ediel_sol  =         0.00000000
  ---------------------------------------------------
  free energy    TOTEN  =     -1295.55714629 eV

  energy without entropy =    -1295.48047048  energy(sigma->0) =    -1295.51880838


--------------------------------------------------------------------------------------------------------




--------------------------------------- Iteration      1(   5)  ---------------------------------------


     EDDAV:  cpu time   23.4563: real time   23.4859
       DOS:  cpu time    0.0030: real time    0.0030
    CHARGE:  cpu time    0.8918: real time    0.8987
    MIXING:  cpu time    0.0142: real time    0.0166
    --------------------------------------------
      LOOP:  cpu time   24.3653: real time   24.4042

 eigenvalue-minimisations  :  6880
 total energy-change (2. order) :-0.1007491E+01  (-0.1005349E+01)
 number of electron     603.9999995 magnetization       0.0000664
 augmentation part       37.1147044 magnetization       0.0050913

 Broyden mixing:
  rms(total) = 0.85712E+01    rms(broyden)= 0.85707E+01
  rms(prec ) = 0.94508E+01
  weight for this iteration     100.00

 Free energy of the ion-electron system (eV)
  ---------------------------------------------------
  alpha Z        PSCENC =       457.94753084
  Ewald energy   TEWEN  =     41788.36614230
  -Hartree energ DENC   =    -65731.43684391
  -exchange      EXHF   =         0.00000000
  -V(xc)+E(xc)   XCENC  =      2116.45293818
  PAW double counting   =     22087.95224925   -22402.63741193
  entropy T*S    EENTRO =        -0.07677564
  eigenvalues    EBANDS =     -8304.94312704
  atomic energy  EATOM  =     28691.81066055
  Solvation  Ediel_sol  =         0.00000000
  ---------------------------------------------------
  free energy    TOTEN  =     -1296.56463740 eV

  energy without entropy =    -1296.48786176  energy(sigma->0) =    -1296.52624958


--------------------------------------------------------------------------------------------------------




--------------------------------------- Iteration      1(   6)  ---------------------------------------


    POTLOK:  cpu time    0.4360: real time    0.4360
    SETDIJ:  cpu time    0.0651: real time    0.0651
     EDDAV:  cpu time   23.3015: real time   23.3282
       DOS:  cpu time    0.0032: real time    0.0032
    CHARGE:  cpu time    0.8602: real time    0.8638
    MIXING:  cpu time    0.0095: real time    0.0133
    --------------------------------------------
      LOOP:  cpu time   24.6754: real time   24.7096

 eigenvalue-minimisations  :  6976
 total energy-change (2. order) :-0.1994288E+03  (-0.2464781E+03)
 number of electron     604.0000005 magnetization       0.0005628
 augmentation part       56.6479235 magnetization      -0.0296816

 Broyden mixing:
  rms(total) = 0.22167E+02    rms(broyden)= 0.22167E+02
  rms(prec ) = 0.22547E+02
  weight for this iteration     100.00

 eigenvalues of (default mixing * dielectric matrix)
  average eigenvalue GAMMA=   0.0951
  0.0951

 Free energy of the ion-electron system (eV)
  ---------------------------------------------------
  alpha Z        PSCENC =       457.94753084
  Ewald energy   TEWEN  =     41788.36614230
  -Hartree energ DENC   =    -66023.28835868
  -exchange      EXHF   =         0.00000000
  -V(xc)+E(xc)   XCENC  =      2153.26153952
  PAW double counting   =     32845.66291311   -33072.25745121
  entropy T*S    EENTRO =        -0.09558387
  eigenvalues    EBANDS =     -8337.40078265
  atomic energy  EATOM  =     28691.81066055
  Solvation  Ediel_sol  =         0.00000000
  ---------------------------------------------------
  free energy    TOTEN  =     -1495.99339009 eV

  energy without entropy =    -1495.89780622  energy(sigma->0) =    -1495.94559816


--------------------------------------------------------------------------------------------------------




--------------------------------------- Iteration      1(   7)  ---------------------------------------


    POTLOK:  cpu time    0.3618: real time    0.3627
    SETDIJ:  cpu time    0.0647: real time    0.0647
     EDDAV:  cpu time   18.1158: real time   18.1385
       DOS:  cpu time    0.0040: real time    0.0040
    CHARGE:  cpu time    0.8517: real time    0.8541
    MIXING:  cpu time    0.0092: real time    0.0113
    --------------------------------------------
      LOOP:  cpu time   19.4072: real time   19.4354

 eigenvalue-minimisations  :  5184
 total energy-change (2. order) : 0.9265369E+02  (-0.2116068E+02)
 number of electron     604.0000006 magnetization      -0.0021393
 augmentation part       54.9513897 magnetization      -0.0017907

 Broyden mixing:
  rms(total) = 0.14029E+02    rms(broyden)= 0.14029E+02
  rms(prec ) = 0.14553E+02
  weight for this iteration     100.00

 eigenvalues of (default mixing * dielectric matrix)
  average eigenvalue GAMMA=   0.4496
  0.4496  0.4496

 Free energy of the ion-electron system (eV)
  ---------------------------------------------------
  alpha Z        PSCENC =       457.94753084
  Ewald energy   TEWEN  =     41788.36614230
  -Hartree energ DENC   =    -66179.55779526
  -exchange      EXHF   =         0.00000000
  -V(xc)+E(xc)   XCENC  =      2155.46264387
  PAW double counting   =     34366.41514367   -34622.41976803
  entropy T*S    EENTRO =        -0.11285058
  eigenvalues    EBANDS =     -8061.25140945
  atomic energy  EATOM  =     28691.81066055
  Solvation  Ediel_sol  =         0.00000000
  ---------------------------------------------------
  free energy    TOTEN  =     -1403.33970209 eV

  energy without entropy =    -1403.22685151  energy(sigma->0) =    -1403.28327680


--------------------------------------------------------------------------------------------------------




--------------------------------------- Iteration      1(   8)  ---------------------------------------


    POTLOK:  cpu time    0.3367: real time    0.3367
    SETDIJ:  cpu time    0.0644: real time    0.0644
     EDDAV:  cpu time   22.0762: real time   22.1049
       DOS:  cpu time    0.0029: real time    0.0030
    CHARGE:  cpu time    0.8570: real time    0.8589
    MIXING:  cpu time    0.0083: real time    0.0092
    --------------------------------------------
      LOOP:  cpu time   23.3456: real time   23.3770

 eigenvalue-minimisations  :  6464
 total energy-change (2. order) : 0.2421416E+03  (-0.2450316E+02)
 number of electron     603.9999999 magnetization      -0.0033103
 augmentation part       46.1289762 magnetization       0.0041310

 Broyden mixing:
  rms(total) = 0.31293E+01    rms(broyden)= 0.31290E+01
  rms(prec ) = 0.32066E+01
  weight for this iteration     100.00

 eigenvalues of (default mixing * dielectric matrix)
  average eigenvalue GAMMA=   0.4976
  0.5455  0.4736  0.4736

 Free energy of the ion-electron system (eV)
  ---------------------------------------------------
  alpha Z        PSCENC =       457.94753084
  Ewald energy   TEWEN  =     41788.36614230
  -Hartree energ DENC   =    -66638.23454506
  -exchange      EXHF   =         0.00000000
  -V(xc)+E(xc)   XCENC  =      2163.71597302
  PAW double counting   =     39540.42077448   -39875.91291183
  entropy T*S    EENTRO =        -0.01165543
  eigenvalues    EBANDS =     -7289.30011165
  atomic energy  EATOM  =     28691.81066055
  Solvation  Ediel_sol  =         0.00000000
  ---------------------------------------------------
[...]
     15.28319     11.99720      5.21824        -0.000455      0.000679     -0.000468
     13.25564      7.01561      1.46127         0.002307     -0.000586     -0.000215
     22.95578     25.34599      8.04650        -0.000931      0.000164     -0.001716
     15.28347      8.33344      5.08070        -0.001395      0.001973      0.001621
     10.87556     12.89407      5.68806        -0.001251     -0.001882     -0.001602
      1.18066     19.46212      3.82539         0.000824     -0.001035      0.001955
     20.93136     20.35622      4.28778         0.002277      0.001223      0.001561
     22.66615     23.38936      5.48587         0.003089      0.001323     -0.004003
     23.31961     23.82463      6.60756         0.002568     -0.001838     -0.004143
     22.66599     21.84413      9.53084         0.001226     -0.001180     -0.003040
     13.54871     11.36726      6.27661        -0.003247      0.000058     -0.003286
     12.89376      8.53381      2.90373         0.000051     -0.001798     -0.001992
      0.82193     20.98088      5.26813        -0.000976     -0.002729      0.001626
     12.89425     11.80402      7.39718        -0.002673     -0.004151     -0.002900
     13.54881      8.96797      4.02495        -0.000346     -0.003713     -0.004565
     11.24514     11.37451      4.24840         0.001810     -0.001212     -0.003356
      1.47816     21.41379      6.38916        -0.000505     -0.002038     -0.000795
      0.82431     24.25221      9.76297        -0.000882     -0.003227     -0.003479
     11.24924      8.95958      6.05115         0.000458     -0.000349     -0.001622
     23.32130     21.40983      8.40983         0.001088     -0.000439     -0.000402
      1.47754     23.81641      8.64132        -0.001586      0.000695     -0.004313
     10.59450      9.39305      7.17276        -0.001267     -0.003526     -0.004020
     10.59308     10.93757      3.12650         0.003636     -0.000514     -0.001827
     20.52877      1.20304      1.82329        -0.000443      0.000653     -0.000938
     20.52869     19.13291      8.47243         0.000315      0.000856      0.002137
     15.68695     14.08038      7.32645         0.000840      0.000239     -0.001141
     15.68479      6.25495      2.96775         0.000877      0.001865      0.000924
      3.60806     18.69642      5.33080        -0.001355      0.002801      0.002365
      8.44670     13.64385      4.17628        -0.000744     -0.003736     -0.001558
      3.61338      1.62899      4.97783         0.000462     -0.000145     -0.002369
      8.45952      6.67938      6.11614         0.001670      0.001962      0.001512
     20.00688     25.16244      8.57013         0.004876     -0.002720      0.004690
     20.99619      2.98894      6.06531         0.000746      0.002136     -0.000379
     20.99885     17.34535      4.22948         0.001106      0.002080      0.005830
     15.22037     15.01013      5.27004        -0.000584      0.000203     -0.002525
     15.21811      5.32389      5.02322        -0.001712      0.000945      0.006053
      4.12947     20.49786      9.59251        -0.001860      0.004726     -0.001479
     16.20765     12.28456      3.06811        -0.003110     -0.003584      0.002064
     16.20411      8.05201      7.22692        -0.002569      0.005159     -0.001300
      7.92365     12.69619      6.21150         0.002720     -0.003282      0.004718
      3.14011     17.76231      7.38484        -0.001057      0.002033      0.003748
      3.14769      2.55632      2.92001        -0.002826      0.000259     -0.001733
      8.93033      4.89324      1.87374         0.000210      0.003908      0.003772
     20.00861     20.07467      6.43394         0.002983      0.005727     -0.001860
      4.13896     24.73594      5.42881        -0.004474     -0.005202      0.004257
      7.94001      7.61909      4.07651         0.001435      0.005914     -0.001916
      8.90983     15.42969      8.41717         0.002301      0.000294     -0.002206
 -----------------------------------------------------------------------------------
    total drift:                               -0.004938      0.000618      0.059134


--------------------------------------------------------------------------------------------------------



  FREE ENERGIE OF THE ION-ELECTRON SYSTEM (eV)
  ---------------------------------------------------
  free  energy   TOTEN  =     -1179.26147408 eV

  energy  without entropy=    -1179.25514035  energy(sigma->0) =    -1179.25830721
 


--------------------------------------------------------------------------------------------------------


    POTLOK:  cpu time    0.4345: real time    0.4357


--------------------------------------------------------------------------------------------------------




--------------------------------------------------------------------------------------------------------


  
 reached required accuracy - stopping structural energy minimisation
 writing wavefunctions
     LOOP+:  cpu time 1086.0125: real time 1101.3245
    4ORBIT:  cpu time    0.0001: real time    0.0000
 


 total charge     
 
# of ion       s       p       d       tot
------------------------------------------
    1        0.868   1.771   0.000   2.638
    2        0.867   1.774   0.000   2.641
    3        0.867   1.770   0.000   2.638
    4        0.868   1.770   0.000   2.638
    5        0.867   1.774   0.000   2.642
    6        0.867   1.774   0.000   2.642
    7        0.867   1.774   0.000   2.641
    8        0.867   1.770   0.000   2.638
    9        0.867   1.774   0.000   2.641
   10        0.867   1.770   0.000   2.638
   11        0.867   1.774   0.000   2.641
   12        0.867   1.774   0.000   2.642
   13        0.867   1.774   0.000   2.642
   14        0.868   1.770   0.000   2.638
   15        0.868   1.770   0.000   2.638
   16        0.867   1.771   0.000   2.638
   17        0.864   1.717   0.000   2.581
   18        0.864   1.718   0.000   2.582
   19        0.864   1.719   0.000   2.583
   20        0.864   1.719   0.000   2.582
   21        0.864   1.719   0.000   2.583
   22        0.864   1.717   0.000   2.580
   23        0.864   1.717   0.000   2.580
   24        0.864   1.717   0.000   2.580
   25        0.864   1.717   0.000   2.580
   26        0.864   1.719   0.000   2.582
   27        0.864   1.719   0.000   2.582
   28        0.864   1.719   0.000   2.583
   29        0.864   1.717   0.000   2.580
   30        0.864   1.717   0.000   2.581
   31        0.864   1.717   0.000   2.580
   32        0.864   1.719   0.000   2.582
   33        0.867   1.784   0.000   2.651
   34        0.866   1.785   0.000   2.651
   35        0.866   1.785   0.000   2.651
   36        0.866   1.785   0.000   2.651
   37        0.866   1.785   0.000   2.651
   38        0.867   1.784   0.000   2.651
   39        0.867   1.784   0.000   2.651
   40        0.867   1.784   0.000   2.650
   41        0.867   1.784   0.000   2.650
   42        0.866   1.785   0.000   2.651
   43        0.866   1.785   0.000   2.651
   44        0.866   1.785   0.000   2.651
   45        0.867   1.784   0.000   2.650
   46        0.867   1.784   0.000   2.651
   47        0.867   1.784   0.000   2.650
   48        0.866   1.785   0.000   2.651
   49        0.870   1.767   0.000   2.637
   50        0.871   1.766   0.000   2.637
   51        0.871   1.767   0.000   2.637
   52        0.871   1.766   0.000   2.637
   53        0.871   1.767   0.000   2.637
   54        0.870   1.767   0.000   2.637
   55        0.870   1.767   0.000   2.637
   56        0.870   1.766   0.000   2.637
   57        0.870   1.766   0.000   2.637
   58        0.871   1.766   0.000   2.637
   59        0.871   1.766   0.000   2.637
   60        0.871   1.767   0.000   2.637
   61        0.870   1.766   0.000   2.637
   62        0.871   1.767   0.000   2.637
   63        0.870   1.766   0.000   2.637
   64        0.871   1.767   0.000   2.637
   65        0.846   1.793   0.000   2.640
   66        0.846   1.794   0.000   2.640
   67        0.846   1.794   0.000   2.640
   68        0.846   1.793   0.000   2.639
   69        0.846   1.794   0.000   2.640
   70        0.846   1.794   0.000   2.640
   71        0.846   1.793   0.000   2.640
   72        0.846   1.794   0.000   2.640
   73        0.866   1.794   0.000   2.659
   74        0.866   1.794   0.000   2.660
   75        0.866   1.794   0.000   2.659
   76        0.866   1.794   0.000   2.659
   77        0.866   1.794   0.000   2.660
   78        0.866   1.794   0.000   2.659
   79        0.866   1.794   0.000   2.660
   80        0.866   1.794   0.000   2.660
   81        0.411   0.528   7.160   8.099
   82        0.411   0.527   7.160   8.098
   83        0.411   0.528   7.160   8.098
   84        0.411   0.528   7.160   8.099
   85        0.638   0.048   0.000   0.686
   86        0.639   0.048   0.000   0.687
   87        0.638   0.048   0.000   0.686
   88        0.638   0.048   0.000   0.687
   89        0.638   0.048   0.000   0.686
   90        0.638   0.048   0.000   0.686
   91        0.638   0.048   0.000   0.686
   92        0.638   0.048   0.000   0.686
   93        0.638   0.048   0.000   0.686
   94        0.638   0.048   0.000   0.686
   95        0.638   0.048   0.000   0.686
   96        0.638   0.048   0.000   0.686
   97        0.638   0.048   0.000   0.686
   98        0.638   0.048   0.000   0.686
   99        0.638   0.048   0.000   0.686
  100        0.638   0.048   0.000   0.686
  101        0.636   0.049   0.000   0.685
  102        0.636   0.049   0.000   0.685
  103        0.630   0.050   0.000   0.680
  104        0.630   0.050   0.000   0.680
  105        0.636   0.049   0.000   0.685
  106        0.630   0.050   0.000   0.680
  107        0.630   0.050   0.000   0.680
  108        0.636   0.049   0.000   0.685
  109        0.630   0.050   0.000   0.680
  110        0.630   0.050   0.000   0.680
  111        0.636   0.049   0.000   0.685
  112        0.636   0.049   0.000   0.685
  113        0.630   0.050   0.000   0.680
  114        0.636   0.049   0.000   0.685
  115        0.636   0.049   0.000   0.685
  116        0.630   0.050   0.000   0.680
  117        1.236   2.612   0.000   3.849
  118        1.237   2.612   0.000   3.849
  119        1.236   2.612   0.000   3.848
  120        1.236   2.612   0.000   3.849
  121        1.237   2.613   0.000   3.850
  122        1.237   2.613   0.000   3.850
  123        1.237   2.612   0.000   3.849
  124        1.236   2.612   0.000   3.848
  125        1.237   2.612   0.000   3.849
  126        1.236   2.612   0.000   3.848
  127        1.237   2.612   0.000   3.849
  128        1.237   2.613   0.000   3.850
  129        1.237   2.613   0.000   3.850
  130        1.236   2.612   0.000   3.848
  131        1.236   2.612   0.000   3.848
  132        1.236   2.612   0.000   3.849
  133        1.211   2.725   0.000   3.937
  134        1.211   2.725   0.000   3.937
  135        1.211   2.726   0.000   3.937
  136        1.211   2.725   0.000   3.936
  137        1.211   2.725   0.000   3.937
  138        1.211   2.726   0.000   3.937
  139        1.211   2.725   0.000   3.937
  140        1.211   2.725   0.000   3.937
  141        1.585   3.540   0.000   5.125
  142        1.586   3.535   0.000   5.121
  143        1.586   3.535   0.000   5.121
  144        1.586   3.535   0.000   5.121
  145        1.586   3.535   0.000   5.121
  146        1.585   3.540   0.000   5.125
  147        1.585   3.540   0.000   5.125
  148        1.585   3.540   0.000   5.125
  149        1.585   3.540   0.000   5.124
  150        1.586   3.535   0.000   5.121
  151        1.586   3.535   0.000   5.121
  152        1.586   3.535   0.000   5.121
  153        1.585   3.540   0.000   5.125
  154        1.585   3.540   0.000   5.125
  155        1.585   3.540   0.000   5.125
  156        1.586   3.535   0.000   5.121
--------------------------------------------------
tot        146.010 265.221  28.639 439.870
 


 magnetization (x)
 
# of ion       s       p       d       tot
------------------------------------------
    1        0.003   0.013   0.000   0.016
    2        0.003   0.014   0.000   0.017
    3        0.003   0.013   0.000   0.016
    4       -0.003  -0.013   0.000  -0.016
    5       -0.003  -0.014   0.000  -0.017
    6        0.003   0.014   0.000   0.017
    7       -0.003  -0.014   0.000  -0.017
    8       -0.003  -0.013   0.000  -0.016
    9       -0.003  -0.014   0.000  -0.017
   10        0.003   0.013   0.000   0.016
   11        0.003   0.014   0.000   0.017
   12       -0.003  -0.014   0.000  -0.017
   13        0.003   0.014   0.000   0.017
   14        0.003   0.013   0.000   0.016
   15       -0.003  -0.013   0.000  -0.016
   16       -0.003  -0.013   0.000  -0.016
   17        0.000   0.001   0.000   0.001
   18        0.000   0.001   0.000   0.001
   19        0.000   0.001   0.000   0.001
   20       -0.000  -0.001   0.000  -0.001
   21       -0.000  -0.001   0.000  -0.001
   22        0.000   0.001   0.000   0.001
   23       -0.000  -0.001   0.000  -0.001
   24       -0.000  -0.001   0.000  -0.001
   25       -0.000  -0.001   0.000  -0.001
   26        0.000   0.001   0.000   0.001
   27        0.000   0.001   0.000   0.001
   28       -0.000  -0.001   0.000  -0.001
   29        0.000   0.001   0.000   0.001
   30        0.000   0.001   0.000   0.001
   31       -0.000  -0.001   0.000  -0.001
   32       -0.000  -0.001   0.000  -0.001
   33        0.000  -0.000   0.000  -0.000
   34        0.000  -0.000   0.000  -0.000
   35        0.000  -0.000   0.000  -0.000
   36       -0.000   0.000   0.000   0.000
   37       -0.000   0.000   0.000   0.000
   38        0.000  -0.000   0.000  -0.000
   39       -0.000   0.000   0.000   0.000
   40       -0.000   0.000   0.000   0.000
   41       -0.000   0.000   0.000   0.000
   42        0.000  -0.000   0.000  -0.000
   43        0.000  -0.000   0.000  -0.000
   44       -0.000   0.000   0.000   0.000
   45        0.000  -0.000   0.000  -0.000
   46        0.000  -0.000   0.000  -0.000
   47       -0.000   0.000   0.000   0.000
   48       -0.000   0.000   0.000   0.000
   49        0.000   0.000   0.000   0.000
   50        0.000   0.000   0.000   0.000
   51        0.000   0.000   0.000   0.000
   52       -0.000  -0.000   0.000  -0.000
   53       -0.000  -0.000   0.000  -0.000
   54        0.000   0.000   0.000   0.000
   55       -0.000  -0.000   0.000  -0.000
   56       -0.000  -0.000   0.000  -0.000
   57       -0.000  -0.000   0.000  -0.000
   58        0.000   0.000   0.000   0.000
   59        0.000   0.000   0.000   0.000
   60       -0.000  -0.000   0.000  -0.000
   61        0.000   0.000   0.000   0.000
   62        0.000   0.000   0.000   0.000
   63       -0.000  -0.000   0.000  -0.000
   64       -0.000  -0.000   0.000  -0.000
   65        0.002   0.008   0.000   0.010
   66        0.002   0.008   0.000   0.010
   67       -0.002  -0.008   0.000  -0.010
   68       -0.002  -0.008   0.000  -0.010
   69        0.002   0.008   0.000   0.010
   70       -0.002  -0.008   0.000  -0.010
   71        0.002   0.008   0.000   0.010
   72       -0.002  -0.008   0.000  -0.010
   73        0.000   0.000   0.000   0.000
   74        0.000   0.000   0.000   0.000
   75       -0.000  -0.000   0.000  -0.000
   76       -0.000  -0.000   0.000  -0.000
   77        0.000   0.000   0.000   0.000
   78       -0.000  -0.000   0.000  -0.000
   79        0.000   0.000   0.000   0.000
   80       -0.000  -0.000   0.000  -0.000
   81        0.011   0.087   2.339   2.437
   82        0.011   0.087   2.339   2.438
   83       -0.011  -0.087  -2.339  -2.437
   84       -0.011  -0.087  -2.339  -2.437
   85        0.000  -0.000   0.000   0.000
   86        0.000  -0.000   0.000   0.000
   87        0.000  -0.000   0.000   0.000
   88       -0.000   0.000   0.000  -0.000
   89       -0.000   0.000   0.000  -0.000
   90        0.000  -0.000   0.000   0.000
   91       -0.000   0.000   0.000  -0.000
   92       -0.000   0.000   0.000  -0.000
   93       -0.000   0.000   0.000  -0.000
   94        0.000  -0.000   0.000   0.000
   95        0.000  -0.000   0.000   0.000
   96       -0.000   0.000   0.000  -0.000
   97        0.000  -0.000   0.000   0.000
   98        0.000  -0.000   0.000   0.000
   99       -0.000   0.000   0.000  -0.000
  100       -0.000   0.000   0.000  -0.000
  101       -0.001  -0.000   0.000  -0.001
  102       -0.001  -0.000   0.000  -0.001
  103       -0.001  -0.000   0.000  -0.001
  104        0.001   0.000   0.000   0.001
  105        0.001   0.000   0.000   0.001
  106       -0.001  -0.000   0.000  -0.001
  107        0.001   0.000   0.000   0.001
  108        0.001   0.000   0.000   0.001
  109        0.001   0.000   0.000   0.001
  110       -0.001  -0.000   0.000  -0.001
  111       -0.001  -0.000   0.000  -0.001
  112        0.001   0.000   0.000   0.001
  113       -0.001  -0.000   0.000  -0.001
  114       -0.001  -0.000   0.000  -0.001
  115        0.001   0.000   0.000   0.001
  116        0.001   0.000   0.000   0.001
  117        0.013   0.045   0.000   0.058
  118        0.015   0.048   0.000   0.063
  119        0.013   0.045   0.000   0.058
  120       -0.013  -0.045   0.000  -0.058
  121       -0.015  -0.048   0.000  -0.064
  122        0.015   0.048   0.000   0.064
  123       -0.015  -0.048   0.000  -0.063
  124       -0.013  -0.045   0.000  -0.058
  125       -0.015  -0.048   0.000  -0.063
  126        0.013   0.045   0.000   0.058
  127        0.015   0.048   0.000   0.063
  128       -0.015  -0.048   0.000  -0.064
  129        0.015   0.048   0.000   0.064
  130        0.013   0.045   0.000   0.058
  131       -0.013  -0.045   0.000  -0.058
  132       -0.013  -0.045   0.000  -0.058
  133        0.000   0.001   0.000   0.001
  134        0.000   0.001   0.000   0.001
  135       -0.000  -0.001   0.000  -0.001
  136       -0.000  -0.001   0.000  -0.001
  137        0.000   0.001   0.000   0.001
  138       -0.000  -0.001   0.000  -0.001
  139        0.000   0.001   0.000   0.001
  140       -0.000  -0.001   0.000  -0.001
  141        0.000   0.001   0.000   0.001
  142        0.000   0.001   0.000   0.001
  143        0.000   0.001   0.000   0.001
  144       -0.000  -0.001   0.000  -0.001
  145       -0.000  -0.001   0.000  -0.001
  146        0.000   0.001   0.000   0.001
  147       -0.000  -0.001   0.000  -0.001
  148       -0.000  -0.001   0.000  -0.001
  149       -0.000  -0.001   0.000  -0.001
  150        0.000   0.001   0.000   0.001
  151        0.000   0.001   0.000   0.001
  152       -0.000  -0.001   0.000  -0.001
  153        0.000   0.001   0.000   0.001
  154        0.000   0.001   0.000   0.001
  155       -0.000  -0.001   0.000  -0.001
  156       -0.000  -0.001   0.000  -0.001
--------------------------------------------------
tot         -0.000  -0.000   0.000  -0.000
 

 total amount of memory used by VASP MPI-rank0   111671. kBytes
=======================================================================

   base      :      30000. kBytes
   nonlr-proj:       6744. kBytes
   fftplans  :      10003. kBytes
   grid      :      27806. kBytes
   one-center:       1213. kBytes
   wavefun   :      35905. kBytes
 
  
  
 General timing and accounting informations for this job:
 ========================================================
  
                  Total CPU time used (sec):     1303.258
                            User time (sec):     1190.163
                          System time (sec):      113.095
                         Elapsed time (sec):     1330.244
  
                   Maximum memory used (kb):      997320.
                   Average memory used (kb):           0.
  
                          Minor page faults:        81658
                          Major page faults:           10
                 Voluntary context switches:        45321
