       N       E                     dE             d eps       ncg     rms          rms(c)
DAV:   1     0.534581425135E+04    0.53458E+04   -0.27768E+05  9264   0.146E+03
DAV:   2    -0.341027013277E+03   -0.56868E+04   -0.54447E+04 12456   0.329E+02
DAV:   3    -0.125479441350E+04   -0.91377E+03   -0.90181E+03 11168   0.139E+02
DAV:   4    -0.129713522356E+04   -0.42341E+02   -0.41674E+02 13776   0.442E+01
DAV:   5    -0.129821838299E+04   -0.10832E+01   -0.10757E+01 14656   0.737E+00
DAV:   6    -0.129825511962E+04   -0.36737E-01   -0.36561E-01 14144   0.123E+00
DAV:   7    -0.129825733922E+04   -0.22196E-02   -0.22107E-02 14656   0.277E-01
DAV:   8    -0.129825747115E+04   -0.13193E-03   -0.13160E-03 14136   0.582E-02    0.916E+01
DAV:   9    -0.159506970250E+04   -0.29681E+03   -0.13665E+03 13944   0.835E+01    0.360E+02
DAV:  10    -0.153634247266E+04    0.58727E+02   -0.31311E+02 11256   0.332E+01    0.227E+02
DAV:  11    -0.117994778492E+04    0.35639E+03   -0.29682E+02 13312   0.936E+01    0.701E+01
DAV:  12    -0.117767975721E+04    0.22680E+01   -0.27329E+02 13632   0.593E+01    0.507E+01
DAV:  13    -0.123397165679E+04   -0.56292E+02   -0.30348E+02 13296   0.239E+01    0.829E+01
DAV:  14    -0.116992666852E+04    0.64045E+02   -0.68584E+01 13096   0.402E+01    0.359E+01
DAV:  15    -0.117526237345E+04   -0.53357E+01   -0.43712E+01 13656   0.244E+01    0.452E+01
DAV:  16    -0.117017544297E+04    0.50869E+01   -0.51771E+01 13640   0.220E+01    0.295E+01
DAV:  17    -0.116635166131E+04    0.38238E+01   -0.15215E+01 13144   0.140E+01    0.163E+01
DAV:  18    -0.116775989640E+04   -0.14082E+01   -0.99367E+00 13544   0.767E+00    0.196E+01
DAV:  19    -0.116829377033E+04   -0.53387E+00   -0.40841E+00 13256   0.540E+00    0.142E+01
DAV:  20    -0.116897463233E+04   -0.68086E+00   -0.27992E-01 12240   0.139E+00    0.132E+01
DAV:  21    -0.117121934810E+04   -0.22447E+01   -0.27935E+00 12040   0.335E+00    0.157E+01
DAV:  22    -0.117143094167E+04   -0.21159E+00   -0.43270E-01 12128   0.150E+00    0.138E+01
DAV:  23    -0.117215014446E+04   -0.71920E+00   -0.18996E-01 11784   0.153E+00    0.128E+01
DAV:  24    -0.117265700114E+04   -0.50686E+00   -0.22507E+00 11656   0.194E+00    0.115E+01
DAV:  25    -0.117330990019E+04   -0.65290E+00   -0.20170E+00 12256   0.249E+00    0.994E+00
DAV:  26    -0.117340461625E+04   -0.94716E-01   -0.11411E-01 12224   0.767E-01    0.977E+00
DAV:  27    -0.117352642255E+04   -0.12181E+00   -0.37157E-02 13080   0.821E-01    0.981E+00
DAV:  28    -0.117368667634E+04   -0.16025E+00   -0.57750E-02 12512   0.850E-01    0.969E+00
DAV:  29    -0.117383772161E+04   -0.15105E+00   -0.83876E-02 12216   0.844E-01    0.907E+00
DAV:  30    -0.117422986435E+04   -0.39214E+00   -0.50173E-01 12640   0.118E+00    0.930E+00
DAV:  31    -0.117426960852E+04   -0.39744E-01   -0.15862E-01 12536   0.822E-01    0.854E+00
DAV:  32    -0.117433598146E+04   -0.66373E-01   -0.81966E-02 12376   0.527E-01    0.794E+00
DAV:  33    -0.117442335258E+04   -0.87371E-01   -0.96215E-02 12144   0.731E-01    0.729E+00
DAV:  34    -0.117433360437E+04    0.89748E-01   -0.35071E-02 13072   0.848E-01    0.661E+00
DAV:  35    -0.117420655177E+04    0.12705E+00   -0.47611E-02 12776   0.126E+00    0.570E+00
DAV:  36    -0.117409533649E+04    0.11122E+00   -0.67634E-02 13632   0.129E+00    0.444E+00
DAV:  37    -0.117407391291E+04    0.21424E-01   -0.30970E-02 12824   0.503E-01    0.411E+00
DAV:  38    -0.117407424536E+04   -0.33245E-03   -0.50930E-03 12552   0.322E-01    0.380E+00
DAV:  39    -0.117412818204E+04   -0.53937E-01   -0.11351E-02 12336   0.434E-01    0.322E+00
DAV:  40    -0.117417388810E+04   -0.45706E-01   -0.17940E-02 12424   0.488E-01    0.260E+00
DAV:  41    -0.117419867797E+04   -0.24790E-01   -0.12322E-02 12576   0.345E-01    0.248E+00
DAV:  42    -0.117425400725E+04   -0.55329E-01   -0.24508E-02 12216   0.527E-01    0.183E+00
DAV:  43    -0.117426574627E+04   -0.11739E-01   -0.20255E-02 12768   0.339E-01    0.138E+00
DAV:  44    -0.117429637810E+04   -0.30632E-01   -0.55347E-03 12664   0.176E-01    0.118E+00
DAV:  45    -0.117432599568E+04   -0.29618E-01   -0.21493E-03 12440   0.148E-01    0.960E-01
DAV:  46    -0.117435309649E+04   -0.27101E-01   -0.19989E-03 12456   0.966E-02    0.740E-01
DAV:  47    -0.117436887949E+04   -0.15783E-01   -0.64250E-04 13208   0.698E-02    0.587E-01
DAV:  48    -0.117438156191E+04   -0.12682E-01   -0.47808E-04 12152   0.481E-02    0.427E-01
DAV:  49    -0.117439203209E+04   -0.10470E-01   -0.36085E-04 13192   0.447E-02    0.313E-01
DAV:  50    -0.117439922623E+04   -0.71941E-02   -0.23844E-04 12672   0.342E-02    0.227E-01
DAV:  51    -0.117440572404E+04   -0.64978E-02   -0.17095E-04 11912   0.348E-02    0.150E-01
DAV:  52    -0.117440951281E+04   -0.37888E-02   -0.10772E-04 12832   0.335E-02    0.747E-02
DAV:  53    -0.117441127385E+04   -0.17610E-02   -0.69501E-05 12832   0.229E-02    0.389E-02
DAV:  54    -0.117441202229E+04   -0.74844E-03   -0.24111E-05 13096   0.153E-02    0.244E-02
DAV:  55    -0.117441303054E+04   -0.10082E-02   -0.17599E-05 10536   0.998E-03    0.214E-02
DAV:  56    -0.117441406816E+04   -0.10376E-02   -0.20572E-05 10352   0.816E-03    0.209E-02
DAV:  57    -0.117441467631E+04   -0.60815E-03   -0.92478E-06  9360   0.613E-03    0.174E-02
DAV:  58    -0.117441537143E+04   -0.69512E-03   -0.13939E-05 10064   0.724E-03    0.123E-02
DAV:  59    -0.117441571740E+04   -0.34597E-03   -0.61629E-06  9112   0.654E-03    0.803E-03
DAV:  60    -0.117441609328E+04   -0.37588E-03   -0.11921E-05  9872   0.525E-03    0.606E-03
DAV:  61    -0.117441625991E+04   -0.16663E-03   -0.59636E-06  9120   0.427E-03    0.554E-03
DAV:  62    -0.117441633812E+04   -0.78213E-04   -0.25872E-06  8520   0.286E-03    0.446E-03
DAV:  63    -0.117441639561E+04   -0.57490E-04   -0.72251E-07  7384   0.187E-03    0.351E-03
DAV:  64    -0.117441645506E+04   -0.59451E-04   -0.10496E-06  7432   0.188E-03    0.227E-03
DAV:  65    -0.117441648198E+04   -0.26919E-04   -0.48704E-07  7256   0.156E-03    0.151E-03
DAV:  66    -0.117441649262E+04   -0.10642E-04   -0.31411E-07  6880   0.122E-03    0.131E-03
DAV:  67    -0.117441650237E+04   -0.97491E-05   -0.29393E-07  7104   0.947E-04    0.115E-03
DAV:  68    -0.117441651066E+04   -0.82905E-05   -0.32166E-07  6880   0.952E-04    0.764E-04
DAV:  69    -0.117441651449E+04   -0.38265E-05   -0.21929E-07  6904   0.929E-04    0.598E-04
DAV:  70    -0.117441651528E+04   -0.79165E-06   -0.13458E-07  6760   0.676E-04
   1 F= -.11860343E+04 E0= -.11860210E+04  d E =-.118603E+04  mag=    -0.0000
