 vasp.5.4.4.18Apr17-6-g9f103f2a35 (build Nov 13 2020 05:28:38) complex          
  
 executed on             LinuxIFC date 2020.12.21  20:25:15
 running on   32 total cores
 distrk:  each k-point on   32 cores,    1 groups
 distr:  one band on NCORES_PER_BAND=   4 cores,    8 groups


--------------------------------------------------------------------------------------------------------


 INCAR:
 POTCAR:    PAW_PBE C 08Apr2002                   
 POTCAR:    PAW_PBE Fe 06Sep2000                  
 POTCAR:    PAW_PBE H 15Jun2001                   
 POTCAR:    PAW_PBE N 08Apr2002                   
 POTCAR:    PAW_PBE O 08Apr2002                   
 POTCAR:    PAW_PBE C 08Apr2002                   
   VRHFIN =C: s2p2                                                              
   LEXCH  = PE                                                                  
   EATOM  =   147.1560 eV,   10.8157 Ry                                         
                                                                                
   TITEL  = PAW_PBE C 08Apr2002                                                 
   LULTRA =        F    use ultrasoft PP ?                                      
   IUNSCR =        1    unscreen: 0-lin 1-nonlin 2-no                           
   RPACOR =    1.200    partial core radius                                     
   POMASS =   12.011; ZVAL   =    4.000    mass and valenz                      
   RCORE  =    1.500    outmost cutoff radius                                   
   RWIGS  =    1.630; RWIGS  =    0.863    wigner-seitz radius (au A)           
   ENMAX  =  400.000; ENMIN  =  300.000 eV                                      
   ICORE  =        2    local potential                                         
   LCOR   =        T    correct aug charges                                     
   LPAW   =        T    paw PP                                                  
   EAUG   =  644.873                                                            
   DEXC   =    0.000                                                            
   RMAX   =    1.529    core radius for proj-oper                               
   RAUG   =    1.300    factor for augmentation sphere                          
   RDEP   =    1.501    radius for radial grids                                 
   RDEPT  =    1.300    core radius for aug-charge                              
                                                                                
   Atomic configuration                                                         
    4 entries                                                                   
     n  l   j            E        occ.                                          
     1  0  0.50      -273.3789   2.0000                                         
     2  0  0.50       -13.7508   2.0000                                         
     2  1  0.50        -5.2854   2.0000                                         
     3  2  1.50        -5.4423   0.0000                                         
   Description                                                                  
     l       E           TYP  RCUT    TYP  RCUT                                 
     0    -13.7508458     23  1.200                                             
     0     -8.2022199     23  1.200                                             
     1     -5.2854383     23  1.500                                             
     1     34.0145650     23  1.500                                             
     2     -5.4423304      7  1.500                                             
  local pseudopotential read in
  partial core-charges read in
  partial kinetic energy density read in
  atomic valenz-charges read in
  non local Contribution for L=           0  read in
    real space projection operators read in
  non local Contribution for L=           0  read in
    real space projection operators read in
  non local Contribution for L=           1  read in
    real space projection operators read in
  non local Contribution for L=           1  read in
    real space projection operators read in
    PAW grid and wavefunctions read in
 
   number of l-projection  operators is LMAX  =           4
   number of lm-projection operators is LMMAX =           8
 
 POTCAR:    PAW_PBE Fe 06Sep2000                  
   VRHFIN =Fe:  d7 s1                                                           
   LEXCH  = PE                                                                  
   EATOM  =   594.3153 eV,   43.6809 Ry                                         
                                                                                
   TITEL  = PAW_PBE Fe 06Sep2000                                                
   LULTRA =        F    use ultrasoft PP ?                                      
   IUNSCR =        1    unscreen: 0-lin 1-nonlin 2-no                           
   RPACOR =    2.000    partial core radius                                     
   POMASS =   55.847; ZVAL   =    8.000    mass and valenz                      
   RCORE  =    2.300    outmost cutoff radius                                   
   RWIGS  =    2.460; RWIGS  =    1.302    wigner-seitz radius (au A)           
   ENMAX  =  267.882; ENMIN  =  200.911 eV                                      
   RCLOC  =    1.701    cutoff for local pot                                    
   LCOR   =        T    correct aug charges                                     
   LPAW   =        T    paw PP                                                  
   EAUG   =  511.368                                                            
   DEXC   =    0.000                                                            
   RMAX   =    2.356    core radius for proj-oper                               
   RAUG   =    1.300    factor for augmentation sphere                          
   RDEP   =    2.442    radius for radial grids                                 
   RDEPT  =    1.890    core radius for aug-charge                              
                                                                                
   Atomic configuration                                                         
    9 entries                                                                   
     n  l   j            E        occ.                                          
     1  0  0.50     -6993.8440   2.0000                                         
     2  0  0.50      -814.6047   2.0000                                         
     2  1  1.50      -693.3689   6.0000                                         
     3  0  0.50       -89.4732   2.0000                                         
     3  1  1.50       -55.6373   6.0000                                         
     3  2  2.50        -3.8151   7.0000                                         
     4  0  0.50        -4.2551   1.0000                                         
     4  1  1.50        -3.4015   0.0000                                         
     4  3  2.50        -1.3606   0.0000                                         
   Description                                                                  
     l       E           TYP  RCUT    TYP  RCUT                                 
     2     -3.8151135     23  2.300                                             
     2     -5.1756961     23  2.300                                             
     0     -4.2550963     23  2.300                                             
     0      7.2035603     23  2.300                                             
     1     -2.7211652     23  2.300                                             
     1     18.4316424     23  2.300                                             
  local pseudopotential read in
  partial core-charges read in
  partial kinetic energy density read in
  atomic valenz-charges read in
  non local Contribution for L=           2  read in
    real space projection operators read in
  non local Contribution for L=           2  read in
    real space projection operators read in
  non local Contribution for L=           0  read in
    real space projection operators read in
  non local Contribution for L=           0  read in
    real space projection operators read in
  non local Contribution for L=           1  read in
    real space projection operators read in
  non local Contribution for L=           1  read in
    real space projection operators read in
    PAW grid and wavefunctions read in
 
   number of l-projection  operators is LMAX  =           6
   number of lm-projection operators is LMMAX =          18
 
 POTCAR:    PAW_PBE H 15Jun2001                   
   VRHFIN =H: ultrasoft test                                                    
   LEXCH  = PE                                                                  
   EATOM  =    12.4884 eV,    0.9179 Ry                                         
                                                                                
   TITEL  = PAW_PBE H 15Jun2001                                                 
   LULTRA =        F    use ultrasoft PP ?                                      
   IUNSCR =        0    unscreen: 0-lin 1-nonlin 2-no                           
   RPACOR =    0.000    partial core radius                                     
   POMASS =    1.000; ZVAL   =    1.000    mass and valenz                      
   RCORE  =    1.100    outmost cutoff radius                                   
   RWIGS  =    0.700; RWIGS  =    0.370    wigner-seitz radius (au A)           
   ENMAX  =  250.000; ENMIN  =  200.000 eV                                      
   RCLOC  =    0.701    cutoff for local pot                                    
   LCOR   =        T    correct aug charges                                     
   LPAW   =        T    paw PP                                                  
   EAUG   =  400.000                                                            
   RMAX   =    1.123    core radius for proj-oper                               
   RAUG   =    1.200    factor for augmentation sphere                          
   RDEP   =    1.112    radius for radial grids                                 
   RDEPT  =    0.926    core radius for aug-charge                              
                                                                                
   Atomic configuration                                                         
    2 entries                                                                   
     n  l   j            E        occ.                                          
     1  0  0.50        -6.4927   1.0000                                         
     2  1  0.50        -3.4015   0.0000                                         
   Description                                                                  
     l       E           TYP  RCUT    TYP  RCUT                                 
     0     -6.4927494     23  1.100                                             
     0      6.8029130     23  1.100                                             
     1     -4.0817478     23  1.100                                             
  local pseudopotential read in
  atomic valenz-charges read in
  non local Contribution for L=           0  read in
    real space projection operators read in
  non local Contribution for L=           0  read in
    real space projection operators read in
  non local Contribution for L=           1  read in
    real space projection operators read in
    PAW grid and wavefunctions read in
 
   number of l-projection  operators is LMAX  =           3
   number of lm-projection operators is LMMAX =           5
 
 POTCAR:    PAW_PBE N 08Apr2002                   
   VRHFIN =N: s2p3                                                              
   LEXCH  = PE                                                                  
   EATOM  =   264.5486 eV,   19.4438 Ry                                         
                                                                                
   TITEL  = PAW_PBE N 08Apr2002                                                 
   LULTRA =        F    use ultrasoft PP ?                                      
   IUNSCR =        1    unscreen: 0-lin 1-nonlin 2-no                           
   RPACOR =    1.200    partial core radius                                     
   POMASS =   14.001; ZVAL   =    5.000    mass and valenz                      
   RCORE  =    1.500    outmost cutoff radius                                   
   RWIGS  =    1.400; RWIGS  =    0.741    wigner-seitz radius (au A)           
   ENMAX  =  400.000; ENMIN  =  300.000 eV                                      
   ICORE  =        2    local potential                                         
   LCOR   =        T    correct aug charges                                     
   LPAW   =        T    paw PP                                                  
   EAUG   =  627.112                                                            
   DEXC   =    0.000                                                            
   RMAX   =    1.529    core radius for proj-oper                               
   RAUG   =    1.300    factor for augmentation sphere                          
   RDEP   =    1.514    radius for radial grids                                 
   RDEPT  =    1.338    core radius for aug-charge                              
                                                                                
   Atomic configuration                                                         
    4 entries                                                                   
     n  l   j            E        occ.                                          
     1  0  0.50      -384.7179   2.0000                                         
     2  0  0.50       -18.5828   2.0000                                         
     2  1  0.50        -7.0898   3.0000                                         
     3  2  1.50        -6.8029   0.0000                                         
   Description                                                                  
     l       E           TYP  RCUT    TYP  RCUT                                 
     0    -18.5828119     23  1.200                                             
     0    -13.5018863     23  1.200                                             
     1     -7.0897853     23  1.500                                             
     1      9.5240782     23  1.500                                             
     2     -6.8029130      7  1.500                                             
  local pseudopotential read in
  partial core-charges read in
  partial kinetic energy density read in
  atomic valenz-charges read in
  non local Contribution for L=           0  read in
    real space projection operators read in
  non local Contribution for L=           0  read in
    real space projection operators read in
  non local Contribution for L=           1  read in
    real space projection operators read in
  non local Contribution for L=           1  read in
    real space projection operators read in
    PAW grid and wavefunctions read in
 
   number of l-projection  operators is LMAX  =           4
   number of lm-projection operators is LMMAX =           8
 
 POTCAR:    PAW_PBE O 08Apr2002                   
   VRHFIN =O: s2p4                                                              
   LEXCH  = PE                                                                  
   EATOM  =   432.3788 eV,   31.7789 Ry                                         
                                                                                
   TITEL  = PAW_PBE O 08Apr2002                                                 
   LULTRA =        F    use ultrasoft PP ?                                      
   IUNSCR =        1    unscreen: 0-lin 1-nonlin 2-no                           
   RPACOR =    1.200    partial core radius                                     
   POMASS =   16.000; ZVAL   =    6.000    mass and valenz                      
   RCORE  =    1.520    outmost cutoff radius                                   
   RWIGS  =    1.550; RWIGS  =    0.820    wigner-seitz radius (au A)           
   ENMAX  =  400.000; ENMIN  =  300.000 eV                                      
   ICORE  =        2    local potential                                         
   LCOR   =        T    correct aug charges                                     
   LPAW   =        T    paw PP                                                  
   EAUG   =  605.392                                                            
   DEXC   =    0.000                                                            
   RMAX   =    1.553    core radius for proj-oper                               
   RAUG   =    1.300    factor for augmentation sphere                          
   RDEP   =    1.550    radius for radial grids                                 
   RDEPT  =    1.329    core radius for aug-charge                              
                                                                                
   Atomic configuration                                                         
    4 entries                                                                   
     n  l   j            E        occ.                                          
     1  0  0.50      -514.6923   2.0000                                         
     2  0  0.50       -23.9615   2.0000                                         
     2  1  0.50        -9.0305   4.0000                                         
     3  2  1.50        -9.5241   0.0000                                         
   Description                                                                  
     l       E           TYP  RCUT    TYP  RCUT                                 
     0    -23.9615318     23  1.200                                             
     0     -9.5240782     23  1.200                                             
     1     -9.0304911     23  1.520                                             
     1      8.1634956     23  1.520                                             
     2     -9.5240782      7  1.500                                             
  local pseudopotential read in
  partial core-charges read in
  partial kinetic energy density read in
  kinetic energy density of atom read in
  atomic valenz-charges read in
  non local Contribution for L=           0  read in
    real space projection operators read in
  non local Contribution for L=           0  read in
    real space projection operators read in
  non local Contribution for L=           1  read in
    real space projection operators read in
  non local Contribution for L=           1  read in
    real space projection operators read in
    PAW grid and wavefunctions read in
 
   number of l-projection  operators is LMAX  =           4
   number of lm-projection operators is LMMAX =           8
 
 Optimization of the real space projectors (new method)

 maximal supplied QI-value         = 25.13
 optimisation between [QCUT,QGAM] = [ 12.32, 24.88] = [ 42.47,173.37] Ry 
 Optimized for a Real-space Cutoff    1.06 Angstroem

   l    n(q)    QCUT    max X(q) W(low)/X(q) W(high)/X(q)  e(spline) 
   0      8    12.315   115.676    0.34E-03    0.18E-03    0.23E-06
   0      8    12.315    87.132    0.34E-03    0.18E-03    0.22E-06
   1      7    12.315     4.429    0.45E-03    0.12E-03    0.18E-06
   1      7    12.315     2.733    0.35E-03    0.97E-04    0.15E-06
 Optimization of the real space projectors (new method)

 maximal supplied QI-value         = 16.25
 optimisation between [QCUT,QGAM] = [ 12.51, 25.03] = [ 43.85,175.40] Ry 
 Optimized for a Real-space Cutoff    1.35 Angstroem

   l    n(q)    QCUT    max X(q) W(low)/X(q) W(high)/X(q)  e(spline) 
   2      9    12.514    80.901    0.12E-03    0.34E-03    0.58E-06
   2      9    12.514    75.754    0.12E-03    0.34E-03    0.59E-06
   0     10    12.514    58.752    0.17E-03    0.81E-04    0.93E-07
   0     10    12.514    30.679    0.15E-03    0.74E-04    0.88E-07
   1     10    12.514    17.977    0.11E-03    0.79E-04    0.24E-06
   1     10    12.514    13.559    0.97E-04    0.61E-04    0.20E-06
 Optimization of the real space projectors (new method)

 maximal supplied QI-value         = 34.20
 optimisation between [QCUT,QGAM] = [ 12.31, 24.97] = [ 42.46,174.58] Ry 
 Optimized for a Real-space Cutoff    1.00 Angstroem

   l    n(q)    QCUT    max X(q) W(low)/X(q) W(high)/X(q)  e(spline) 
   0      7    12.313    19.460    0.14E-03    0.42E-03    0.16E-06
   0      7    12.313    12.209    0.12E-03    0.40E-03    0.16E-06
   1      7    12.313     4.655    0.33E-03    0.59E-03    0.89E-07
 Optimization of the real space projectors (new method)

 maximal supplied QI-value         = 25.13
 optimisation between [QCUT,QGAM] = [ 12.32, 24.88] = [ 42.47,173.37] Ry 
 Optimized for a Real-space Cutoff    1.20 Angstroem

   l    n(q)    QCUT    max X(q) W(low)/X(q) W(high)/X(q)  e(spline) 
   0      9    12.315    79.467    0.14E-03    0.22E-04    0.37E-06
   0      9    12.315    66.151    0.14E-03    0.23E-04    0.36E-06
   1      8    12.315    22.077    0.30E-03    0.54E-03    0.45E-06
   1      8    12.315    15.894    0.30E-03    0.55E-03    0.45E-06
 Optimization of the real space projectors (new method)

 maximal supplied QI-value         = 24.76
 optimisation between [QCUT,QGAM] = [ 12.38, 25.00] = [ 42.90,175.06] Ry 
 Optimized for a Real-space Cutoff    1.13 Angstroem

   l    n(q)    QCUT    max X(q) W(low)/X(q) W(high)/X(q)  e(spline) 
   0      8    12.378    20.381    0.16E-03    0.54E-05    0.27E-06
   0      8    12.378    15.268    0.17E-03    0.61E-05    0.29E-06
   1      8    12.378     5.964    0.38E-03    0.23E-03    0.28E-06
   1      8    12.378     5.382    0.33E-03    0.20E-03    0.25E-06
  PAW_PBE C 08Apr2002                   :
 energy of atom  1       EATOM= -147.1560
 kinetic energy error for atom=    0.0057 (will be added to EATOM!!)
  PAW_PBE Fe 06Sep2000                  :
 energy of atom  2       EATOM= -594.3153
 kinetic energy error for atom=    0.0017 (will be added to EATOM!!)
  PAW_PBE H 15Jun2001                   :
 energy of atom  3       EATOM=  -12.4884
 kinetic energy error for atom=    0.0004 (will be added to EATOM!!)
  PAW_PBE N 08Apr2002                   :
 energy of atom  4       EATOM= -264.5486
 kinetic energy error for atom=    0.0103 (will be added to EATOM!!)
  PAW_PBE O 08Apr2002                   :
 energy of atom  5       EATOM= -432.3788
 kinetic energy error for atom=    0.0168 (will be added to EATOM!!)
 
 
 POSCAR: FeH_exp1                                
  positions in direct lattice
  velocities in cartesian coordinates
 exchange correlation table for  LEXCH =        8
   RHO(1)=    0.500       N(1)  =     2000
   RHO(2)=  100.500       N(2)  =     4000
 


--------------------------------------------------------------------------------------------------------


 ion  position               nearest neighbor table
   1  0.879  0.966  0.101- 107 1.09 117 1.35  65 1.40
   2  0.933  0.981  0.429- 112 1.09 118 1.35  65 1.40
   3  0.876  0.817  0.900- 116 1.09 119 1.35  66 1.40
   4  0.621  0.466  0.609- 110 1.09 120 1.35  67 1.40
   5  0.571  0.301  0.081- 111 1.09 121 1.35  68 1.40
   6  0.067  0.800  0.074- 115 1.09 122 1.35  69 1.40
   7  0.566  0.481  0.936- 101 1.09 123 1.35  67 1.40
   8  0.625  0.317  0.406- 113 1.09 124 1.35  68 1.40
   9  0.430  0.479  0.437- 114 1.09 125 1.35  70 1.40
  10  0.121  0.814  0.401- 104 1.09 126 1.35  69 1.40
  11  0.070  0.979  0.930- 105 1.09 127 1.35  71 1.40
  12  0.434  0.300  0.581- 102 1.09 128 1.35  72 1.40
  13  0.930  0.802  0.573- 108 1.09 129 1.35  66 1.40
  14  0.124  0.964  0.603- 109 1.09 130 1.35  71 1.40
  15  0.379  0.314  0.909- 106 1.09 131 1.35  72 1.40
  16  0.376  0.464  0.111- 103 1.09 132 1.35  70 1.40
  17  0.801  0.039  0.452- 141 1.23 133 1.41  33 1.48
  18  0.857  0.076  0.063- 142 1.23 133 1.42  34 1.48
  19  0.851  0.708  0.943- 143 1.23 134 1.42  35 1.48
  20  0.643  0.576  0.569- 144 1.23 135 1.42  36 1.48
  21  0.650  0.207  0.447- 145 1.23 136 1.42  37 1.48
  22  0.199  0.741  0.052- 146 1.23 137 1.41  38 1.48
  23  0.698  0.540  0.958- 147 1.23 135 1.41  39 1.48
  24  0.705  0.244  0.057- 148 1.23 136 1.41  40 1.48
  25  0.296  0.537  0.458- 149 1.23 138 1.41  41 1.48
  26  0.143  0.705  0.441- 150 1.23 137 1.42  42 1.48
  27  0.149  0.074  0.564- 151 1.23 139 1.42  43 1.48
  28  0.356  0.205  0.946- 152 1.23 140 1.42  44 1.48
  29  0.796  0.744  0.553- 153 1.23 134 1.41  45 1.48
  30  0.204  0.037  0.953- 154 1.23 139 1.41  46 1.48
  31  0.301  0.241  0.558- 155 1.23 140 1.41  47 1.48
  32  0.351  0.573  0.068- 156 1.23 138 1.42  48 1.48
  33  0.762  0.083  0.445-  49 1.39  73 1.42  17 1.48
  34  0.818  0.119  0.068-  50 1.39  73 1.42  18 1.48
  35  0.812  0.665  0.941-  51 1.39  74 1.42  19 1.48
  36  0.681  0.619  0.572-  52 1.39  75 1.42  20 1.48
  37  0.688  0.164  0.442-  53 1.39  76 1.42  21 1.48
  38  0.238  0.698  0.061-  54 1.39  77 1.42  22 1.48
  39  0.737  0.583  0.949-  55 1.39  75 1.42  23 1.48
  40  0.744  0.201  0.065-  56 1.39  76 1.42  24 1.48
  41  0.257  0.580  0.448-  57 1.39  78 1.42  25 1.48
  42  0.182  0.662  0.439-  58 1.39  77 1.42  26 1.48
  43  0.188  0.116  0.568-  59 1.39  79 1.42  27 1.48
  44  0.318  0.162  0.942-  60 1.39  80 1.42  28 1.48
  45  0.756  0.701  0.564-  61 1.39  74 1.42  29 1.48
  46  0.243  0.080  0.946-  62 1.39  79 1.42  30 1.48
  47  0.262  0.198  0.565-  63 1.39  80 1.42  31 1.48
  48  0.313  0.616  0.070-  64 1.39  78 1.42  32 1.48
  49  0.716  0.085  0.626-  88 1.09  33 1.39  53 1.40
  50  0.827  0.158  0.886-  99 1.09  34 1.39  56 1.40
  51  0.821  0.626  0.125-  93 1.09  35 1.39  55 1.40
  52  0.672  0.658  0.389-  90 1.09  36 1.39  61 1.40
  53  0.679  0.126  0.624-  98 1.09  37 1.39  49 1.40
  54  0.285  0.695  0.882-  96 1.09  38 1.39  64 1.40
  55  0.784  0.586  0.129-  86 1.09  39 1.39  51 1.40
  56  0.790  0.199  0.884-  87 1.09  40 1.39  50 1.40
  57  0.210  0.583  0.627-  95 1.09  41 1.39  58 1.40
  58  0.173  0.623  0.622-  91 1.09  42 1.39  57 1.40
  59  0.179  0.155  0.386-  92 1.09  43 1.39  63 1.40
  60  0.327  0.123  0.124-  85 1.09  44 1.39  62 1.40
  61  0.709  0.698  0.384-  89 1.09  45 1.39  52 1.40
  62  0.290  0.082  0.126- 100 1.09  46 1.39  60 1.40
  63  0.216  0.196  0.384-  94 1.09  47 1.39  59 1.40
  64  0.322  0.654  0.886-  97 1.09  48 1.39  54 1.40
  65  0.884  0.998  0.263-   2 1.40   1 1.40 133 1.42
  66  0.880  0.785  0.739-  13 1.40   3 1.40 134 1.42
  67  0.616  0.498  0.770-   7 1.40   4 1.40 135 1.42
  68  0.621  0.285  0.245-   5 1.40   8 1.40 136 1.42
  69  0.116  0.783  0.239-   6 1.40  10 1.40 137 1.42
  70  0.380  0.495  0.272-   9 1.40  16 1.40 138 1.42
  71  0.120  0.996  0.765-  11 1.40  14 1.40 139 1.42
  72  0.384  0.283  0.746-  12 1.40  15 1.40 140 1.42
  73  0.772  0.121  0.256-  33 1.42  34 1.42  76 1.43
  74  0.766  0.663  0.754-  45 1.42  35 1.42  75 1.43
  75  0.728  0.621  0.759-  39 1.42  36 1.42  74 1.43
  76  0.734  0.163  0.254-  40 1.42  37 1.42  73 1.43
  77  0.228  0.659  0.252-  38 1.42  42 1.42  78 1.43
  78  0.266  0.618  0.257-  41 1.42  48 1.42  77 1.43
  79  0.234  0.118  0.756-  46 1.42  43 1.42  80 1.43
  80  0.272  0.160  0.754-  47 1.42  44 1.42  79 1.43
  81  0.979  0.891  0.001- 119 2.00 117 2.00 127 2.02 122 2.02  82 2.92  82 2.92
  82  0.021  0.890  0.501- 126 2.00 130 2.00 118 2.02 129 2.02  81 2.92  81 2.92
  83  0.521  0.390  0.509- 120 2.00 124 2.00 128 2.02 125 2.02  84 2.92  84 2.93
  84  0.479  0.390  0.010- 131 2.00 132 2.00 123 2.02 121 2.02  83 2.92  83 2.93
  85  0.363  0.125  0.266-  60 1.09
  86  0.791  0.556  0.272-  55 1.09
  87  0.797  0.229  0.742-  56 1.09
  88  0.709  0.055  0.768-  49 1.09
  89  0.703  0.729  0.241-  61 1.09
  90  0.636  0.655  0.248-  52 1.09
  91  0.136  0.626  0.763-  58 1.09
  92  0.143  0.153  0.244-  59 1.09
  93  0.857  0.629  0.265-  51 1.09
  94  0.209  0.226  0.241-  63 1.09
  95  0.203  0.552  0.771-  57 1.09
  96  0.291  0.725  0.738-  54 1.09
  97  0.358  0.652  0.745-  64 1.09
  98  0.643  0.128  0.766-  53 1.09
  99  0.863  0.155  0.744-  50 1.09
 100  0.296  0.052  0.269-  62 1.09
 101  0.547  0.495  0.090-   7 1.09
 102  0.453  0.286  0.428-  12 1.09
 103  0.345  0.464  0.953-  16 1.09
 104  0.152  0.813  0.560-  10 1.09
 105  0.052  0.994  0.084-  11 1.09
 106  0.348  0.313  0.067-  15 1.09
 107  0.848  0.967  0.943-   1 1.09
 108  0.948  0.787  0.420-  13 1.09
 109  0.155  0.965  0.445-  14 1.09
 110  0.652  0.468  0.450-   4 1.09
 111  0.552  0.287  0.928-   5 1.09
 112  0.953  0.995  0.583-   2 1.09
 113  0.656  0.316  0.564-   8 1.09
 114  0.449  0.494  0.590-   9 1.09
 115  0.048  0.786  0.920-   6 1.09
 116  0.845  0.817  0.058-   3 1.09
 117  0.923  0.932  0.168-   1 1.35 118 1.37  81 2.00
 118  0.957  0.941  0.369-   2 1.35 117 1.37  82 2.02
 119  0.921  0.851  0.832-   3 1.35 129 1.37  81 2.00
 120  0.577  0.432  0.676-   4 1.35 123 1.37  83 2.00
 121  0.546  0.341  0.141-   5 1.35 124 1.37  84 2.02
 122  0.044  0.840  0.134-   6 1.35 126 1.37  81 2.02
 123  0.543  0.441  0.877-   7 1.35 120 1.37  84 2.02
 124  0.579  0.350  0.340-   8 1.35 121 1.37  83 2.00
 125  0.454  0.440  0.378-   9 1.35 132 1.37  83 2.02
 126  0.077  0.849  0.334-  10 1.35 122 1.37  82 2.00
 127  0.046  0.940  0.870-  11 1.35 130 1.37  81 2.02
 128  0.457  0.340  0.642-  12 1.35 131 1.37  83 2.02
 129  0.954  0.841  0.633-  13 1.35 119 1.37  82 2.02
 130  0.079  0.931  0.670-  14 1.35 127 1.37  82 2.00
 131  0.423  0.349  0.842-  15 1.35 128 1.37  84 2.00
 132  0.421  0.430  0.178-  16 1.35 125 1.37  84 2.00
 133  0.846  0.039  0.260-  17 1.41  18 1.42  65 1.42
 134  0.841  0.745  0.744-  29 1.41  19 1.42  66 1.42
 135  0.653  0.539  0.766-  23 1.41  20 1.42  67 1.42
 136  0.659  0.244  0.249-  24 1.41  21 1.42  68 1.42
 137  0.154  0.741  0.243-  22 1.41  26 1.42  69 1.42
 138  0.341  0.536  0.267-  25 1.41  32 1.42  70 1.42
 139  0.159  0.037  0.761-  30 1.41  27 1.42  71 1.42
 140  0.346  0.242  0.749-  31 1.41  28 1.42  72 1.42
 141  0.795  0.005  0.613-  17 1.23
 142  0.895  0.072  0.899-  18 1.23
 143  0.890  0.712  0.106-  19 1.23
 144  0.604  0.572  0.406-  20 1.23
 145  0.611  0.211  0.611-  21 1.23
 146  0.205  0.775  0.889-  22 1.23
 147  0.705  0.506  0.120-  23 1.23
 148  0.711  0.278  0.895-  24 1.23
 149  0.290  0.503  0.622-  25 1.23
 150  0.104  0.709  0.604-  26 1.23
 151  0.110  0.070  0.400-  27 1.23
 152  0.395  0.209  0.110-  28 1.23
 153  0.790  0.778  0.390-  29 1.23
 154  0.210  0.003  0.115-  30 1.23
 155  0.295  0.276  0.396-  31 1.23
 156  0.391  0.569  0.905-  32 1.23
 

IMPORTANT INFORMATION: All symmetrisations will be switched off!
NOSYMM: (Re-)initialisation of all symmetry stuff for point group C_1.

 
 

Automatic generation of k-mesh.
 generate k-points for:    2    1    4
Space group operators:
 irot       det(A)        alpha          n_x          n_y          n_z        tau_x        tau_y        tau_z
    1     1.000000     0.000001     1.000000     0.000000     0.000000     0.000000     0.000000     0.000000
 
 Subroutine IBZKPT returns following result:
 ===========================================
 
 Found      6 irreducible k-points:
 
 Following reciprocal coordinates:
            Coordinates               Weight
  0.000000  0.000000  0.000000      1.000000
  0.500000  0.000000 -0.000000      1.000000
 -0.000000  0.000000  0.250000      2.000000
  0.500000  0.000000  0.250000      2.000000
 -0.000000  0.000000  0.500000      1.000000
  0.500000  0.000000  0.500000      1.000000
 
 Following cartesian coordinates:
            Coordinates               Weight
  0.000000  0.000000  0.000000      1.000000
  0.024592 -0.000000 -0.000001      1.000000
 -0.000006 -0.003992  0.045246      2.000000
  0.024587 -0.003993  0.045245      2.000000
 -0.000011 -0.007985  0.090491      1.000000
  0.024581 -0.007985  0.090490      1.000000
 


--------------------------------------------------------------------------------------------------------




 Dimension of arrays:
   k-points           NKPTS =      6   k-points in BZ     NKDIM =      6   number of bands    NBANDS=    384
   number of dos      NEDOS =    301   number of ions     NIONS =    156
   non local maximal  LDIM  =      6   non local SUM 2l+1 LMDIM =     18
   total plane-waves  NPLWV = 816480
   max r-space proj   IRMAX =   2609   max aug-charges    IRDMAX=   9125
   dimension x,y,z NGX =   126 NGY =  180 NGZ =   36
   dimension x,y,z NGXF=   252 NGYF=  360 NGZF=   72
   support grid    NGXF=   252 NGYF=  360 NGZF=   72
   ions per type =              80   4  32  24  16
   NGX,Y,Z   is equivalent  to a cutoff of  10.30, 10.28, 10.71 a.u.
   NGXF,Y,Z  is equivalent  to a cutoff of  20.61, 20.56, 21.42 a.u.

 SYSTEM =  flex_MOF                                
 POSCAR =  FeH_exp1                                

 Startparameter for this run:
   NWRITE =      2    write-flag & timer
   PREC   = normal    normal or accurate (medium, high low for compatibility)
   ISTART =      0    job   : 0-new  1-cont  2-samecut
   ICHARG =      2    charge: 1-file 2-atom 10-const
   ISPIN  =      2    spin polarized calculation?
   LNONCOLLINEAR =      F non collinear calculations
   LSORBIT =      F    spin-orbit coupling
   INIWAV =      1    electr: 0-lowe 1-rand  2-diag
   LASPH  =      F    aspherical Exc in radial PAW
   METAGGA=      F    non-selfconsistent MetaGGA calc.

 Electronic Relaxation 1
   ENCUT  =  600.0 eV  44.10 Ry    6.64 a.u.  40.61 58.15 11.16*2*pi/ulx,y,z
   ENINI  =  600.0     initial cutoff
   ENAUG  =  644.9 eV  augmentation charge cutoff
   NELM   =     80;   NELMIN=  3; NELMDL= -8     # of ELM steps 
   EDIFF  = 0.1E-05   stopping-criterion for ELM
   LREAL  =      T    real-space projection
   NLSPLINE    = F    spline interpolate recip. space projectors
   LCOMPAT=      F    compatible to vasp.4.4
   GGA_COMPAT  = T    GGA compatible to vasp.4.4-vasp.4.6
   LMAXPAW     = -100 max onsite density
   LMAXMIX     =    2 max onsite mixed and CHGCAR
   VOSKOWN=      0    Vosko Wilk Nusair interpolation
   ROPT   =   -0.00050  -0.00050  -0.00050  -0.00050
   ROPT   =   -0.00050
 Ionic relaxation
   EDIFFG = -.1E-01   stopping-criterion for IOM
   NSW    =   1000    number of steps for IOM
   NBLOCK =      1;   KBLOCK =   1000    inner block; outer block 
   IBRION =      2    ionic relax: 0-MD 1-quasi-New 2-CG
   NFREE  =      1    steps in history (QN), initial steepest desc. (CG)
   ISIF   =      4    stress and relaxation
   IWAVPR =     11    prediction:  0-non 1-charg 2-wave 3-comb
   ISYM   =      0    0-nonsym 1-usesym 2-fastsym
   LCORR  =      T    Harris-Foulkes like correction to forces

   POTIM  = 0.5000    time-step for ionic-motion
   TEIN   =    0.0    initial temperature
   TEBEG  =    0.0;   TEEND  =   0.0 temperature during run
   SMASS  =  -3.00    Nose mass-parameter (am)
   estimated Nose-frequenzy (Omega)   =  0.10E-29 period in steps =****** mass=  -0.945E-26a.u.
   SCALEE = 1.0000    scale energy and forces
   NPACO  =    256;   APACO  = 16.0  distance and # of slots for P.C.
   PSTRESS=    0.0 pullay stress

  Mass of Ions in am
   POMASS =  12.01 55.85  1.00 14.00 16.00
  Ionic Valenz
   ZVAL   =   4.00  8.00  1.00  5.00  6.00
  Atomic Wigner-Seitz radii
   RWIGS  =  -1.00 -1.00 -1.00 -1.00 -1.00
  virtual crystal weights 
   VCA    =   1.00  1.00  1.00  1.00  1.00
   NELECT =     600.0000    total number of electrons
   NUPDOWN=      -1.0000    fix difference up-down

 DOS related values:
   EMIN   =  10.00;   EMAX   =-10.00  energy-range for DOS
   EFERMI =   0.00
   ISMEAR =     0;   SIGMA  =   0.05  broadening in eV -4-tet -1-fermi 0-gaus

 Electronic relaxation 2 (details)
   IALGO  =     38    algorithm
   LDIAG  =      T    sub-space diagonalisation (order eigenvalues)
   LSUBROT=      F    optimize rotation matrix (better conditioning)
   TURBO    =      0    0=normal 1=particle mesh
   IRESTART =      0    0=no restart 2=restart with 2 vectors
   NREBOOT  =      0    no. of reboots
   NMIN     =      0    reboot dimension
   EREF     =   0.00    reference energy to select bands
   IMIX   =      4    mixing-type and parameters
     AMIX     =   0.40;   BMIX     =  1.00
     AMIX_MAG =   1.60;   BMIX_MAG =  1.00
     AMIN     =   0.10
     WC   =   100.;   INIMIX=   1;  MIXPRE=   1;  MAXMIX= -45

 Intra band minimization:
   WEIMIN = 0.0010     energy-eigenvalue tresh-hold
   EBREAK =  0.65E-09  absolut break condition
   DEPER  =   0.30     relativ break condition  

   TIME   =   0.40     timestep for ELM

  volume/ion in A,a.u.               =      20.89       140.94
  Fermi-wavevector in a.u.,A,eV,Ry     =   0.931399  1.760089 11.803114  0.867504
  Thomas-Fermi vector in A             =   2.057888
 
 Write flags
   LWAVE        =      T    write WAVECAR
   LDOWNSAMPLE  =      F    k-point downsampling of WAVECAR
   LCHARG       =      T    write CHGCAR
   LVTOT        =      F    write LOCPOT, total local potential
   LVHAR        =      F    write LOCPOT, Hartree potential only
   LELF         =      F    write electronic localiz. function (ELF)
   LORBIT       =     11    0 simple, 1 ext, 2 COOP (PROOUT), +10 PAW based schemes


 Dipole corrections
   LMONO  =      F    monopole corrections only (constant potential shift)
   LDIPOL =      F    correct potential (dipole corrections)
   IDIPOL =      0    1-x, 2-y, 3-z, 4-all directions 
   EPSILON=  1.0000000 bulk dielectric constant

 Exchange correlation treatment:
   GGA     =    PE    GGA type
   LEXCH   =     8    internal setting for exchange type
   VOSKOWN=      0    Vosko Wilk Nusair interpolation
   LHFCALC =     F    Hartree Fock is set to
   LHFONE  =     F    Hartree Fock one center treatment
   AEXX    =    0.0000 exact exchange contribution

 Linear response parameters
   LEPSILON=     F    determine dielectric tensor
   LRPA    =     F    only Hartree local field effects (RPA)
   LNABLA  =     F    use nabla operator in PAW spheres
   LVEL    =     F    velocity operator in full k-point grid
   LINTERFAST=   F  fast interpolation
   KINTER  =     0    interpolate to denser k-point grid
   CSHIFT  =0.1000    complex shift for real part using Kramers Kronig
   OMEGAMAX=  -1.0    maximum frequency
   DEG_THRESHOLD= 0.2000000E-02 threshold for treating states as degnerate
   RTIME   =   -0.100 relaxation time in fs
  (WPLASMAI=    0.000 imaginary part of plasma frequency in eV, 0.658/RTIME)
   DFIELD  = 0.0000000 0.0000000 0.0000000 field for delta impulse in time
 
 Orbital magnetization related:
   ORBITALMAG=     F  switch on orbital magnetization
   LCHIMAG   =     F  perturbation theory with respect to B field
   DQ        =  0.001000  dq finite difference perturbation B field
   LLRAUG    =     F  two centre corrections for induced B field



--------------------------------------------------------------------------------------------------------


 conjugate gradient relaxation of ions
 charge density and potential will be updated during run
 spin polarized calculation
 Variant of blocked Davidson
 Davidson routine will perform the subspace rotation
 perform sub-space diagonalisation
    after iterative eigenvector-optimisation
 modified Broyden-mixing scheme, WC =      100.0
 initial mixing is a Kerker type mixing with AMIX =  0.4000 and BMIX =      1.0000
 Hartree-type preconditioning will be used
 using additional bands           84
 real space projection scheme for non local part
 use partial core corrections
 calculate Harris-corrections to forces 
   (improved forces if not selfconsistent)
 use gradient corrections 
 use of overlap-Matrix (Vanderbilt PP)
 Gauss-broadening in eV      SIGMA  =   0.05


--------------------------------------------------------------------------------------------------------


  energy-cutoff  :      600.00
  volume of cell :     3258.13
      direct lattice vectors                 reciprocal lattice vectors
    20.331553056  0.001009587  0.002595556     0.049184635 -0.000000728 -0.000002020
     0.000534319 29.002361017  2.559173590    -0.000001343  0.034744503 -0.002998088
     0.000235818  0.480443236  5.567801953    -0.000022311 -0.015969895  0.180982126

  length of vectors
    20.331553247 29.115053053  5.588492136     0.049184635  0.034873615  0.181685354


 
 k-points in units of 2pi/SCALE and weight: read from INCAR                         
   0.00000000  0.00000000  0.00000000       0.125
   0.02459232 -0.00000036 -0.00000101       0.125
  -0.00000558 -0.00399247  0.04524553       0.250
   0.02458674 -0.00399284  0.04524452       0.250
  -0.00001116 -0.00798495  0.09049106       0.125
   0.02458116 -0.00798531  0.09049005       0.125
 
 k-points in reciprocal lattice and weights: read from INCAR                         
   0.00000000  0.00000000  0.00000000       0.125
   0.50000000  0.00000000 -0.00000000       0.125
  -0.00000000  0.00000000  0.25000000       0.250
   0.50000000  0.00000000  0.25000000       0.250
  -0.00000000  0.00000000  0.50000000       0.125
   0.50000000  0.00000000  0.50000000       0.125
 
 position of ions in fractional coordinates (direct lattice) 
   0.87913359  0.96634385  0.10126850
   0.93348967  0.98075102  0.42864794
   0.87595974  0.81715538  0.89975520
   0.62076813  0.46647411  0.60857925
   0.57065412  0.30136926  0.08067110
   0.06660501  0.80001766  0.07359966
   0.56631073  0.48077109  0.93601485
   0.62464997  0.31689044  0.40647121
   0.43002820  0.47912000  0.43711833
   0.12090996  0.81431366  0.40127617
   0.07032990  0.97932900  0.93013136
   0.43365457  0.29987511  0.58148437
   0.92966078  0.80156395  0.57337380
   0.12403955  0.96411881  0.60301157
   0.37916403  0.31433663  0.90850463
   0.37609647  0.46354779  0.11126308
   0.80103495  0.03947002  0.45217041
   0.85652385  0.07620632  0.06333198
   0.85103362  0.70770719  0.94291323
   0.64257226  0.57640450  0.56923942
   0.64953067  0.20733921  0.44678594
   0.19884105  0.74077696  0.05181563
   0.69841770  0.54002266  0.95792885
   0.70469125  0.24407182  0.05712808
   0.29614944  0.53685857  0.45830620
   0.14306891  0.70453162  0.44091125
   0.14897031  0.07359406  0.56371860
   0.35633728  0.20453829  0.94640815
   0.79563900  0.74401194  0.55303710
   0.20403286  0.03685998  0.95344908
   0.30093707  0.24129632  0.55750184
   0.35147914  0.57305159  0.06808311
   0.76220155  0.08258687  0.44525969
   0.81809977  0.11920237  0.06817197
   0.81204723  0.66487319  0.94110376
   0.68112397  0.61941431  0.57209120
   0.68808968  0.16442104  0.44210151
   0.23788302  0.69767392  0.06129211
   0.73732184  0.58316178  0.94913390
   0.74388268  0.20106459  0.06470170
   0.25661067  0.57979902  0.44775751
   0.18168900  0.66153144  0.43860072
   0.18761430  0.11648624  0.56824081
   0.31780634  0.16158283  0.94180704
   0.75602153  0.70112192  0.56358955
   0.24330253  0.07983345  0.94573028
   0.26198073  0.19822501  0.56467344
   0.31260137  0.61593665  0.06994143
   0.71580938  0.08511637  0.62601385
   0.82728840  0.15782711  0.88598577
   0.82113885  0.62649769  0.12478338
   0.67195081  0.65783866  0.38870655
   0.67893606  0.12581792  0.62443227
   0.28456102  0.69493248  0.88174634
   0.78397363  0.58584846  0.12876641
   0.79035826  0.19852841  0.88418964
   0.20980025  0.58252340  0.62690918
   0.17252283  0.62315691  0.62228883
   0.17859650  0.15506524  0.38567748
   0.32688584  0.12296163  0.12410811
   0.70922299  0.69846051  0.38441386
   0.28981279  0.08232063  0.12611506
   0.21557580  0.19572557  0.38396757
   0.32169950  0.65426444  0.88596219
   0.88397618  0.99786642  0.26316656
   0.87964806  0.78541441  0.73869340
   0.61567158  0.49804133  0.77016134
   0.62084626  0.28521734  0.24508180
   0.11601610  0.78280387  0.23932096
   0.37996164  0.49530746  0.27220166
   0.12030298  0.99567836  0.76507446
   0.38398347  0.28283216  0.74649466
   0.77189798  0.12111494  0.25604193
   0.76555614  0.66284673  0.75439441
   0.72759871  0.62148666  0.75882890
   0.73426625  0.16254958  0.25411284
   0.22818504  0.65940935  0.25195519
   0.26614872  0.61803726  0.25673257
   0.23379189  0.11834121  0.75620511
   0.27156947  0.15971296  0.75405867
   0.97899640  0.89065486  0.00083083
   0.02130444  0.89023045  0.50141322
   0.52147579  0.39039522  0.50891752
   0.47909553  0.38996429  0.00974450
   0.36297978  0.12536394  0.26559154
   0.79063858  0.55565823  0.27195605
   0.79694781  0.22883347  0.74159897
   0.70919279  0.05478569  0.76840631
   0.70266658  0.72859675  0.24079386
   0.63569577  0.65526819  0.24800326
   0.13622714  0.62577481  0.76284006
   0.14260372  0.15260911  0.24394149
   0.85739929  0.62908747  0.26544187
   0.20904295  0.22605255  0.24147396
   0.20320904  0.55241684  0.77067224
   0.29120895  0.72508638  0.73831419
   0.35790426  0.65160222  0.74517338
   0.64290788  0.12830903  0.76605808
   0.86331084  0.15536788  0.74430713
   0.29635877  0.05200521  0.26867954
   0.54712154  0.49479180  0.08979031
   0.45276240  0.28583514  0.42765818
   0.34471284  0.46405382  0.95339477
   0.15221301  0.81314468  0.55983293
   0.05177303  0.99366388  0.08386384
   0.34771449  0.31328339  0.06664900
   0.84774842  0.96742581  0.94298433
   0.94819420  0.78704609  0.42018570
   0.15532389  0.96478439  0.44474377
   0.65212462  0.46764871  0.45011443
   0.55198068  0.28689216  0.92757768
   0.95253238  0.99476212  0.58263041
   0.65610408  0.31638734  0.56414841
   0.44869970  0.49363870  0.59007957
   0.04751035  0.78602372  0.91963666
   0.84467428  0.81667073  0.05788770
   0.92330364  0.93204027  0.16843411
   0.95668566  0.94088560  0.36868284
   0.92123966  0.85068719  0.83225859
   0.57688823  0.43199697  0.67626197
   0.54609845  0.34085532  0.14064682
   0.04351417  0.83991996  0.13351721
   0.54344535  0.44077553  0.87657918
   0.57924712  0.35039055  0.34003664
   0.45443910  0.43952854  0.37786656
   0.07686439  0.84869803  0.33399520
   0.04583728  0.93985576  0.86985117
   0.45694407  0.33968627  0.64177156
   0.95422696  0.84111013  0.63259127
   0.07881700  0.93050459  0.66970659
   0.42348405  0.34855898  0.84186298
   0.42132168  0.42996343  0.17848171
   0.84629412  0.03910787  0.26023568
   0.84106523  0.74450840  0.74431541
   0.65308198  0.53942773  0.76649784
   0.65941209  0.24434447  0.24914881
   0.15352533  0.74144752  0.24326615
   0.34149935  0.53627525  0.26680312
   0.15881741  0.03656897  0.76129914
   0.34621277  0.24162903  0.74936574
   0.79451698  0.00513967  0.61315976
   0.89530792  0.07212016  0.89944093
   0.89017627  0.71184317  0.10558120
   0.60353652  0.57219292  0.40633397
   0.61080506  0.21139850  0.61091348
   0.20528561  0.77484950  0.88925064
   0.70501161  0.50586261  0.11985768
   0.71080706  0.27832710  0.89547769
   0.29019359  0.50291514  0.62189130
   0.10396932  0.70877478  0.60360245
   0.11021346  0.06955926  0.39970323
   0.39512441  0.20858822  0.11028710
   0.78971623  0.77798706  0.38961329
   0.21010536  0.00263771  0.11534650
   0.29450732  0.27560581  0.39635727
   0.39052002  0.56884547  0.90514239
 
 position of ions in cartesian coordinates  (Angst):
  17.87469147 28.07579460  3.03916648
  18.97991985 28.65097865  4.89896189
  17.81027078 24.13260107  7.10317481
  12.62157298 13.82186493  4.58384818
  11.60246454  8.77975405  1.22189812
   1.35462811 23.23782859  2.45734528
  11.51445426 14.39377036  6.44339185
  12.70036917  9.38648789  3.07575016
   8.74350015 14.10605590  3.66105571
   2.45881710 23.80993137  4.31851012
   1.43065866 28.84979940  7.68524263
   8.81716821  8.97689428  4.00614782
  18.90201101 23.52365915  5.24618605
   2.52257404 28.25155980  5.82511836
   7.70937586  9.55337209  5.86380000
   7.64689919 13.49781566  1.80676626
  16.28641234  1.36277475  2.62068508
  17.41451579  2.24145537  0.54986828
  17.30343575 20.97905482  7.06330858
  13.06493413 16.99122734  4.64619938
  13.20618347  6.22863760  3.01991852
   4.04315532 21.50937603  2.18479210
  14.20043092 16.12286777  6.71738263
  14.32761145  7.10681736  0.94452906
   6.02157305 15.79065514  3.92644112
   2.90929353 20.64505770  4.25829660
   3.02896994  2.40538656  3.32740017
   7.24522283  6.38714852  5.79378703
  16.17710450 21.84460901  4.98532190
   4.14854941  1.52731057  5.40347630
   6.11877834  7.26631473  3.72236011
   7.14643903 16.65291397  1.84652405
  15.49689030  2.60990582  2.69245027
  16.63331874  3.49072880  0.68675099
  16.51075851 19.73585915  6.94351299
  13.84877411 18.24002234  4.77224711
  13.99012394  4.98169768  2.88410161
   4.83691848 20.26387833  2.12734841
  14.99143361 17.36981793  6.77891557
  15.12441281  5.86318435  0.87673621
   5.21770893 17.03092157  3.97749751
   3.69447636 19.39687982  4.13548734
   3.81468628  3.65157293  3.46244779
   6.46180490  5.13908922  5.65813850
  15.37159940 20.60572710  4.93421002
   4.94698392  2.76997400  5.47057809
   5.32671417  6.02055136  3.65196209
   6.35601690 17.89753544  1.96652022
  14.55370956  2.77006242  3.70520663
  16.82035133  5.00385989  5.33904755
  16.69539234 18.23069249  2.30021679
  13.66224669 19.26630406  3.84950851
  13.80403892  3.94970634  3.80046733
   5.78614670 20.57859889  6.68858045
  15.93974485 17.05364497  2.21826860
  16.06952545  6.18339345  5.43311287
   4.26602394 17.19595993  4.98182920
   3.50813673 18.37217024  5.05999543
   3.63131796  4.68273446  2.54467827
   6.64619187  3.62613436  1.00653795
  14.42006869 20.44240903  3.92966279
   5.89241776  2.44837644  0.91360870
   4.38318588  5.86119593  2.63931062
   6.54120891 19.40119268  6.60807326
  17.97320392 29.06781131  4.02126709
  17.88520503 23.13466059  6.12519356
  12.51800723 14.81501479  5.56427803
  12.62297879  8.39035088  2.09609903
   2.35926213 22.81825756  3.33612380
   7.72553916 14.49624669  2.78412891
   2.44665882 29.24471970  6.80820912
   7.80730745  8.56183649  4.88114771
  15.69400983  3.63641201  1.73754843
  15.56547745 19.58733677  5.89864557
  14.79372271 18.38988930  5.81738982
  14.92892004  4.83714974  1.83274842
   4.63976807 19.24570852  3.09097183
   5.41160760 18.04815381  3.01179155
   4.75359373  3.79572428  4.51386283
   5.52169218  4.99460963  4.60788741
  19.90499325 25.83248124  2.28650734
   0.43374627 26.05970709  5.07007907
  10.60274139 11.56741547  3.83399460
   9.74096694 11.31505044  1.05348528
   7.38007217  3.76381837  1.80053129
  16.07527132 16.24685823  2.93827543
  16.20348386  6.99381167  4.71676929
  14.41920134  1.95880606  4.42038101
  14.28674897 21.24742324  3.20712189
  12.92509094 19.12411785  3.05942808
   2.77022348 18.51558579  5.84916233
   2.89949419  4.54336859  1.74914128
  17.43265788 18.37341734  3.09009724
   4.25034559  6.67228312  1.92352945
   4.13203219 16.39186194  5.70520843
   5.92129180 21.38422910  5.96716497
   7.27727334 19.25637762  5.81746997
  13.07156479  4.08996145  4.59529347
  17.55270862  4.86450427  4.54400885
   6.02552519  1.63765821  1.62981403
  11.12411607 14.39382198  1.76761284
   9.20561625  8.49581662  3.11379294
   7.00902017 13.91705655  6.49680227
   3.09529330 23.85223718  5.19841237
   1.05317674 28.85894258  3.01002998
   7.06975872  9.11833000  1.17373751
  17.23678117 28.51153891  7.72836098
  19.27878032 23.02902759  4.35615941
   3.15859622 28.19485623  4.94569912
  13.25906229 13.77982939  3.70463482
  11.22299659  8.76675570  5.90020835
  19.36713159 29.13133257  5.79221205
  13.33991693  9.44768362  3.95245973
   9.12316459 14.60064059  4.54991795
   0.96659603 23.23842493  7.13204928
  17.17398997 23.71404387  2.41450181
  18.77273467 27.11322348  3.32545708
  19.45149495 27.46600078  4.46312573
  18.73088385 25.07272011  6.81329832
  11.72942405 12.85441992  4.87234527
  11.10324497  9.95373322  1.65681899
   0.88519085 24.42385318  2.89301129
  11.04953013 13.20522624  6.01005089
  11.77726103 10.32610620  2.79147038
   9.23977655 12.92936765  3.22989551
   1.56330473 24.77478999  4.03178422
   0.93265033 27.67599649  7.24853208
   9.29071542 10.16049998  4.44375913
  19.40151475 24.69906730  5.67716650
   1.60312722 27.30866548  6.11032102
   8.61047313 10.51392825  5.58044848
   8.56639602 12.55613025  2.09519543
  17.20655605  1.26010349  1.55122119
  17.10073567 21.95095171  6.05171004
  13.27863984 16.01359586  5.64989247
  13.40706115  7.20693403  2.01424268
   3.12186198 21.62075917  3.25234914
   6.94356159 15.68177681  2.85881475
   3.22920372  1.42650775  4.33276138
   7.03934907  7.36818946  4.79158928
  16.15391146  0.44445315  3.42916765
  18.20325118  2.52468897  5.19480078
  18.09907130 20.69675718  2.41189596
  12.27123628 16.79077550  3.72829459
  12.41887240  6.42518148  3.94403612
   4.17439904 22.89990675  6.93467865
  14.33427947 14.72950658  1.96376395
  14.45217139  8.50308681  5.69997475
   5.90050171 14.88480297  4.75036795
   2.11437887 20.84624377  5.17488643
   2.24094230  2.20952881  2.40376872
   8.03363034  6.10293644  1.14889577
  16.05666493 22.75144593  4.16234335
   4.27179679  0.13212946  0.64952216
   5.98803203  8.18394358  2.91292631
   7.94039596 16.93312555  6.49644148
 


--------------------------------------------------------------------------------------------------------


 k-point  1 :   0.0000 0.0000 0.0000  plane waves:  108689
 k-point  2 :   0.5000 0.0000-0.0000  plane waves:  108706
 k-point  3 :  -0.0000 0.0000 0.2500  plane waves:  108691
 k-point  4 :   0.5000 0.0000 0.2500  plane waves:  108759
 k-point  5 :  -0.0000 0.0000 0.5000  plane waves:  108856
 k-point  6 :   0.5000 0.0000 0.5000  plane waves:  108772

 maximum and minimum number of plane-waves per node :     27268    27095

 maximum number of plane-waves:    108856
 maximum index in each direction: 
   IXMAX=   40   IYMAX=   58   IZMAX=   11
   IXMIN=  -41   IYMIN=  -58   IZMIN=  -11


 real space projection operators:
  total allocation   :      12854.30 KBytes
  max/ min on nodes  :       3248.58       3177.87


 parallel 3D FFT for wavefunctions:
    minimum data exchange during FFTs selected (reduces bandwidth)
 parallel 3D FFT for charge:
    minimum data exchange during FFTs selected (reduces bandwidth)


 total amount of memory used by VASP MPI-rank0   348543. kBytes
=======================================================================

   base      :      30000. kBytes
   nonlr-proj:      10840. kBytes
   fftplans  :      13505. kBytes
   grid      :      38845. kBytes
   one-center:       1213. kBytes
   wavefun   :     254140. kBytes
 
     INWAV:  cpu time    0.0000: real time    0.0001
 Broyden mixing: mesh for mixing (old mesh)
   NGX = 81   NGY =117   NGZ = 23
  (NGX  =252   NGY  =360   NGZ  = 72)
  gives a total of 217971 points

 initial charge density was supplied:
 charge density of overlapping atoms calculated
 number of electron     600.0000000 magnetization       0.0000000
 keeping initial charge density in first step


--------------------------------------------------------------------------------------------------------


 Maximum index for non-local projection operator          742
 Maximum index for augmentation-charges          479 (set IRDMAX)


--------------------------------------------------------------------------------------------------------


 First call to EWALD:  gamma=   0.120
 Maximum number of real-space cells 2x 2x 7
 Maximum number of reciprocal cells 4x 5x 1

    FEWALD:  cpu time    0.0084: real time    0.0084


--------------------------------------- Iteration      1(   1)  ---------------------------------------


    POTLOK:  cpu time    0.2682: real time    0.2721
    SETDIJ:  cpu time    0.0234: real time    0.0235
     EDDAV:  cpu time   52.2872: real time   52.4137
       DOS:  cpu time    0.0016: real time    0.0016
    --------------------------------------------
      LOOP:  cpu time   52.5804: real time   52.7109

 eigenvalue-minimisations  :  9264
 total energy-change (2. order) : 0.5345814E+04  (-0.2776801E+05)
 number of electron     600.0000000 magnetization       0.0000000
 augmentation part      600.0000000 magnetization       0.0000000

 Free energy of the ion-electron system (eV)
  ---------------------------------------------------
  alpha Z        PSCENC =       544.02760051
  Ewald energy   TEWEN  =     36782.41756480
  -Hartree energ DENC   =    -60337.36077593
  -exchange      EXHF   =         0.00000000
  -V(xc)+E(xc)   XCENC  =      2066.46041103
  PAW double counting   =     21422.65208726   -21556.96843230
  entropy T*S    EENTRO =        -0.05353823
  eigenvalues    EBANDS =     -1390.96489503
  atomic energy  EATOM  =     27815.60422923
  Solvation  Ediel_sol  =         0.00000000
  ---------------------------------------------------
  free energy    TOTEN  =      5345.81425135 eV

  energy without entropy =     5345.86778957  energy(sigma->0) =     5345.84102046


--------------------------------------------------------------------------------------------------------




--------------------------------------- Iteration      1(   2)  ---------------------------------------


     EDDAV:  cpu time   66.1002: real time   66.2644
       DOS:  cpu time    0.0015: real time    0.0015
    --------------------------------------------
      LOOP:  cpu time   66.1018: real time   66.2659

 eigenvalue-minimisations  : 12456
 total energy-change (2. order) :-0.5686841E+04  (-0.5444706E+04)
 number of electron     600.0000000 magnetization       0.0000000
 augmentation part      600.0000000 magnetization       0.0000000

 Free energy of the ion-electron system (eV)
  ---------------------------------------------------
  alpha Z        PSCENC =       544.02760051
  Ewald energy   TEWEN  =     36782.41756480
  -Hartree energ DENC   =    -60337.36077593
  -exchange      EXHF   =         0.00000000
  -V(xc)+E(xc)   XCENC  =      2066.46041103
  PAW double counting   =     21422.65208726   -21556.96843230
  entropy T*S    EENTRO =        -0.00877082
  eigenvalues    EBANDS =     -7077.85092705
  atomic energy  EATOM  =     27815.60422923
  Solvation  Ediel_sol  =         0.00000000
  ---------------------------------------------------
  free energy    TOTEN  =      -341.02701328 eV

  energy without entropy =     -341.01824246  energy(sigma->0) =     -341.02262787


--------------------------------------------------------------------------------------------------------




--------------------------------------- Iteration      1(   3)  ---------------------------------------


     EDDAV:  cpu time   60.4831: real time   60.6289
       DOS:  cpu time    0.0015: real time    0.0015
    --------------------------------------------
      LOOP:  cpu time   60.4846: real time   60.6304

 eigenvalue-minimisations  : 11168
 total energy-change (2. order) :-0.9137674E+03  (-0.9018053E+03)
 number of electron     600.0000000 magnetization       0.0000000
 augmentation part      600.0000000 magnetization       0.0000000

 Free energy of the ion-electron system (eV)
  ---------------------------------------------------
  alpha Z        PSCENC =       544.02760051
  Ewald energy   TEWEN  =     36782.41756480
  -Hartree energ DENC   =    -60337.36077593
  -exchange      EXHF   =         0.00000000
  -V(xc)+E(xc)   XCENC  =      2066.46041103
  PAW double counting   =     21422.65208726   -21556.96843230
  entropy T*S    EENTRO =        -0.07560303
  eigenvalues    EBANDS =     -7991.55149506
  atomic energy  EATOM  =     27815.60422923
  Solvation  Ediel_sol  =         0.00000000
  ---------------------------------------------------
  free energy    TOTEN  =     -1254.79441350 eV

  energy without entropy =    -1254.71881046  energy(sigma->0) =    -1254.75661198


--------------------------------------------------------------------------------------------------------




--------------------------------------- Iteration      1(   4)  ---------------------------------------


     EDDAV:  cpu time   71.7388: real time   71.9116
       DOS:  cpu time    0.0014: real time    0.0014
    --------------------------------------------
      LOOP:  cpu time   71.7402: real time   71.9130

 eigenvalue-minimisations  : 13776
 total energy-change (2. order) :-0.4234081E+02  (-0.4167381E+02)
 number of electron     600.0000000 magnetization       0.0000000
 augmentation part      600.0000000 magnetization       0.0000000

 Free energy of the ion-electron system (eV)
  ---------------------------------------------------
  alpha Z        PSCENC =       544.02760051
  Ewald energy   TEWEN  =     36782.41756480
  -Hartree energ DENC   =    -60337.36077593
  -exchange      EXHF   =         0.00000000
  -V(xc)+E(xc)   XCENC  =      2066.46041103
  PAW double counting   =     21422.65208726   -21556.96843230
  entropy T*S    EENTRO =        -0.05077884
  eigenvalues    EBANDS =     -8033.91712931
  atomic energy  EATOM  =     27815.60422923
  Solvation  Ediel_sol  =         0.00000000
  ---------------------------------------------------
  free energy    TOTEN  =     -1297.13522356 eV

  energy without entropy =    -1297.08444471  energy(sigma->0) =    -1297.10983414


--------------------------------------------------------------------------------------------------------




--------------------------------------- Iteration      1(   5)  ---------------------------------------


     EDDAV:  cpu time   75.5862: real time   75.7686
       DOS:  cpu time    0.0015: real time    0.0015
    --------------------------------------------
      LOOP:  cpu time   75.5877: real time   75.7701

 eigenvalue-minimisations  : 14656
 total energy-change (2. order) :-0.1083159E+01  (-0.1075719E+01)
 number of electron     600.0000000 magnetization       0.0000000
 augmentation part      600.0000000 magnetization       0.0000000

 Free energy of the ion-electron system (eV)
  ---------------------------------------------------
  alpha Z        PSCENC =       544.02760051
  Ewald energy   TEWEN  =     36782.41756480
  -Hartree energ DENC   =    -60337.36077593
  -exchange      EXHF   =         0.00000000
  -V(xc)+E(xc)   XCENC  =      2066.46041103
  PAW double counting   =     21422.65208726   -21556.96843230
  entropy T*S    EENTRO =        -0.04778535
  eigenvalues    EBANDS =     -8035.00328224
  atomic energy  EATOM  =     27815.60422923
  Solvation  Ediel_sol  =         0.00000000
  ---------------------------------------------------
  free energy    TOTEN  =     -1298.21838299 eV

  energy without entropy =    -1298.17059764  energy(sigma->0) =    -1298.19449031


--------------------------------------------------------------------------------------------------------




--------------------------------------- Iteration      1(   6)  ---------------------------------------


     EDDAV:  cpu time   73.3740: real time   73.5518
       DOS:  cpu time    0.0015: real time    0.0015
    --------------------------------------------
      LOOP:  cpu time   73.3755: real time   73.5533

 eigenvalue-minimisations  : 14144
 total energy-change (2. order) :-0.3673663E-01  (-0.3656078E-01)
 number of electron     600.0000000 magnetization       0.0000000
 augmentation part      600.0000000 magnetization       0.0000000

 Free energy of the ion-electron system (eV)
  ---------------------------------------------------
  alpha Z        PSCENC =       544.02760051
  Ewald energy   TEWEN  =     36782.41756480
  -Hartree energ DENC   =    -60337.36077593
  -exchange      EXHF   =         0.00000000
  -V(xc)+E(xc)   XCENC  =      2066.46041103
  PAW double counting   =     21422.65208726   -21556.96843230
  entropy T*S    EENTRO =        -0.04763184
  eigenvalues    EBANDS =     -8035.04017237
  atomic energy  EATOM  =     27815.60422923
  Solvation  Ediel_sol  =         0.00000000
  ---------------------------------------------------
  free energy    TOTEN  =     -1298.25511962 eV

  energy without entropy =    -1298.20748777  energy(sigma->0) =    -1298.23130369


--------------------------------------------------------------------------------------------------------




--------------------------------------- Iteration      1(   7)  ---------------------------------------


     EDDAV:  cpu time   75.5896: real time   75.7723
       DOS:  cpu time    0.0016: real time    0.0016
    --------------------------------------------
      LOOP:  cpu time   75.5911: real time   75.7739

 eigenvalue-minimisations  : 14656
 total energy-change (2. order) :-0.2219603E-02  (-0.2210739E-02)
 number of electron     600.0000000 magnetization       0.0000000
 augmentation part      600.0000000 magnetization       0.0000000

 Free energy of the ion-electron system (eV)
  ---------------------------------------------------
  alpha Z        PSCENC =       544.02760051
  Ewald energy   TEWEN  =     36782.41756480
  -Hartree energ DENC   =    -60337.36077593
  -exchange      EXHF   =         0.00000000
  -V(xc)+E(xc)   XCENC  =      2066.46041103
  PAW double counting   =     21422.65208726   -21556.96843230
  entropy T*S    EENTRO =        -0.04761537
  eigenvalues    EBANDS =     -8035.04240845
  atomic energy  EATOM  =     27815.60422923
  Solvation  Ediel_sol  =         0.00000000
  ---------------------------------------------------
  free energy    TOTEN  =     -1298.25733922 eV

  energy without entropy =    -1298.20972385  energy(sigma->0) =    -1298.23353154


--------------------------------------------------------------------------------------------------------




--------------------------------------- Iteration      1(   8)  ---------------------------------------


     EDDAV:  cpu time   73.3615: real time   73.5423
       DOS:  cpu time    0.0015: real time    0.0015
    CHARGE:  cpu time    3.0669: real time    3.0741
    MIXING:  cpu time    0.0067: real time    0.0067
    --------------------------------------------
      LOOP:  cpu time   76.4366: real time   76.6247

 eigenvalue-minimisations  : 14136
 total energy-change (2. order) :-0.1319324E-03  (-0.1315968E-03)
 number of electron     600.0000067 magnetization       0.0001654
 augmentation part       33.1660789 magnetization       0.0009648

 Broyden mixing:
  rms(total) = 0.91586E+01    rms(broyden)= 0.91581E+01
  rms(prec ) = 0.98647E+01
  weight for this iteration     100.00

 Free energy of the ion-electron system (eV)
  ---------------------------------------------------
  alpha Z        PSCENC =       544.02760051
  Ewald energy   TEWEN  =     36782.41756480
  -Hartree energ DENC   =    -60337.36077593
  -exchange      EXHF   =         0.00000000
  -V(xc)+E(xc)   XCENC  =      2066.46041103
  PAW double counting   =     21422.65208726   -21556.96843230
  entropy T*S    EENTRO =        -0.04761461
  eigenvalues    EBANDS =     -8035.04254114
  atomic energy  EATOM  =     27815.60422923
  Solvation  Ediel_sol  =         0.00000000
  ---------------------------------------------------
  free energy    TOTEN  =     -1298.25747115 eV

  energy without entropy =    -1298.20985654  energy(sigma->0) =    -1298.23366385


--------------------------------------------------------------------------------------------------------




--------------------------------------- Iteration      1(   9)  ---------------------------------------


    POTLOK:  cpu time    0.2554: real time    0.2584
    SETDIJ:  cpu time    0.0245: real time    0.0245
     EDDAV:  cpu time   72.1434: real time   72.3139
       DOS:  cpu time    0.0015: real time    0.0015
    CHARGE:  cpu time    2.9955: real time    3.0025
    MIXING:  cpu time    0.0068: real time    0.0068
    --------------------------------------------
      LOOP:  cpu time   75.4271: real time   75.6078

 eigenvalue-minimisations  : 13944
 total energy-change (2. order) :-0.2968122E+03  (-0.1366546E+03)
 number of electron     600.0000111 magnetization       0.0026391
 augmentation part       56.2037215 magnetization      -0.3996271

 Broyden mixing:
  rms(total) = 0.35982E+02    rms(broyden)= 0.35982E+02
  rms(prec ) = 0.36324E+02
  weight for this iteration     100.00

 eigenvalues of (default mixing * dielectric matrix)
  average eigenvalue GAMMA=   0.0583
  0.0583

 Free energy of the ion-electron system (eV)
  ---------------------------------------------------
  alpha Z        PSCENC =       544.02760051
  Ewald energy   TEWEN  =     36782.41756480
  -Hartree energ DENC   =    -60696.47708077
  -exchange      EXHF   =         0.00000000
  -V(xc)+E(xc)   XCENC  =      2104.16536570
  PAW double counting   =     32239.63470423   -32337.22372746
  entropy T*S    EENTRO =        -0.17412187
  eigenvalues    EBANDS =     -8047.04423688
  atomic energy  EATOM  =     27815.60422923
  Solvation  Ediel_sol  =         0.00000000
  ---------------------------------------------------
  free energy    TOTEN  =     -1595.06970250 eV

  energy without entropy =    -1594.89558064  energy(sigma->0) =    -1594.98264157


--------------------------------------------------------------------------------------------------------




--------------------------------------- Iteration      1(  10)  ---------------------------------------


    POTLOK:  cpu time    0.2554: real time    0.2585
    SETDIJ:  cpu time    0.0243: real time    0.0244
     EDDAV:  cpu time   60.9172: real time   61.0622
       DOS:  cpu time    0.0015: real time    0.0015
    CHARGE:  cpu time    3.0688: real time    3.0760
    MIXING:  cpu time    0.0072: real time    0.0072
    --------------------------------------------
      LOOP:  cpu time   64.2744: real time   64.4298

 eigenvalue-minimisations  : 11256
 total energy-change (2. order) : 0.5872723E+02  (-0.3131065E+02)
 number of electron     600.0000107 magnetization      -0.0297861
 augmentation part       53.5905713 magnetization       0.0895500

 Broyden mixing:
  rms(total) = 0.22672E+02    rms(broyden)= 0.22672E+02
  rms(prec ) = 0.23181E+02
  weight for this iteration     100.00

 eigenvalues of (default mixing * dielectric matrix)
  average eigenvalue GAMMA=   0.2850
  0.2850  0.2850

 Free energy of the ion-electron system (eV)
  ---------------------------------------------------
  alpha Z        PSCENC =       544.02760051
  Ewald energy   TEWEN  =     36782.41756480
  -Hartree energ DENC   =    -60778.19241110
  -exchange      EXHF   =         0.00000000
  -V(xc)+E(xc)   XCENC  =      2105.95833251
  PAW double counting   =     33036.83033174   -33143.61287441
  entropy T*S    EENTRO =        -0.12737425
  eigenvalues    EBANDS =     -7899.24787168
  atomic energy  EATOM  =     27815.60422923
  Solvation  Ediel_sol  =         0.00000000
  ---------------------------------------------------
  free energy    TOTEN  =     -1536.34247266 eV

  energy without entropy =    -1536.21509841  energy(sigma->0) =    -1536.27878553


--------------------------------------------------------------------------------------------------------




--------------------------------------- Iteration      1(  11)  ---------------------------------------


    POTLOK:  cpu time    0.2560: real time    0.2595
    SETDIJ:  cpu time    0.0244: real time    0.0245
     EDDAV:  cpu time   69.7205: real time   69.8900
       DOS:  cpu time    0.0014: real time    0.0014
    CHARGE:  cpu time    3.0181: real time    3.0252
    MIXING:  cpu time    0.0076: real time    0.0076
    --------------------------------------------
      LOOP:  cpu time   73.0281: real time   73.2082

 eigenvalue-minimisations  : 13312
 total energy-change (2. order) : 0.3563947E+03  (-0.2968190E+02)
 number of electron     600.0000114 magnetization       0.0010786
 augmentation part       49.7940405 magnetization      -0.7016154

 Broyden mixing:
  rms(total) = 0.70129E+01    rms(broyden)= 0.70127E+01
  rms(prec ) = 0.74723E+01
  weight for this iteration     100.00

 eigenvalues of (default mixing * dielectric matrix)
  average eigenvalue GAMMA=   0.3510
  0.3963  0.3963  0.2603

 Free energy of the ion-electron system (eV)
  ---------------------------------------------------
  alpha Z        PSCENC =       544.02760051
  Ewald energy   TEWEN  =     36782.41756480
  -Hartree energ DENC   =    -61099.19850529
  -exchange      EXHF   =         0.00000000
  -V(xc)+E(xc)   XCENC  =      2110.01150108
  PAW double counting   =     37072.81469624   -37221.39303417
  entropy T*S    EENTRO =        -0.01978729
  eigenvalues    EBANDS =     -7184.21205003
  atomic energy  EATOM  =     27815.60422923
  Solvation  Ediel_sol  =         0.00000000
  ---------------------------------------------------
  free energy    TOTEN  =     -1179.94778492 eV

  energy without entropy =    -1179.92799763  energy(sigma->0) =    -1179.93789128


--------------------------------------------------------------------------------------------------------




--------------------------------------- Iteration      1(  12)  ---------------------------------------


    POTLOK:  cpu time    0.2835: real time    0.2868
    SETDIJ:  cpu time    0.0239: real time    0.0240
     EDDAV:  cpu time   71.0774: real time   71.2462
       DOS:  cpu time    0.0015: real time    0.0015
    CHARGE:  cpu time    3.0325: real time    3.0396
    MIXING:  cpu time    0.0080: real time    0.0080
    --------------------------------------------
      LOOP:  cpu time   74.4268: real time   74.6062

 eigenvalue-minimisations  : 13632
 total energy-change (2. order) : 0.2268028E+01  (-0.2732867E+02)
 number of electron     600.0000088 magnetization       0.0160321
 augmentation part       35.5990743 magnetization      -0.1756394

 Broyden mixing:
  rms(total) = 0.50739E+01    rms(broyden)= 0.50737E+01
  rms(prec ) = 0.55233E+01
  weight for this iteration     100.00

 eigenvalues of (default mixing * dielectric matrix)
  average eigenvalue GAMMA=   0.3913
  0.6927  0.3275  0.3275  0.2173

 Free energy of the ion-electron system (eV)
  ---------------------------------------------------
  alpha Z        PSCENC =       544.02760051
  Ewald energy   TEWEN  =     36782.41756480
  -Hartree energ DENC   =    -61323.82277673
  -exchange      EXHF   =         0.00000000
  -V(xc)+E(xc)   XCENC  =      2117.93242007
  PAW double counting   =     39614.69571815   -39777.03787000
  entropy T*S    EENTRO =        -0.02179734
  eigenvalues    EBANDS =     -6951.47484590
  atomic energy  EATOM  =     27815.60422923
  Solvation  Ediel_sol  =         0.00000000
  ---------------------------------------------------
  free energy    TOTEN  =     -1177.67975721 eV

  energy without entropy =    -1177.65795987  energy(sigma->0) =    -1177.66885854


--------------------------------------------------------------------------------------------------------




--------------------------------------- Iteration      1(  13)  ---------------------------------------


    POTLOK:  cpu time    0.2536: real time    0.2591
    SETDIJ:  cpu time    0.0240: real time    0.0240
     EDDAV:  cpu time   69.5769: real time   69.7424
       DOS:  cpu time    0.0015: real time    0.0015
    CHARGE:  cpu time    3.0154: real time    3.0225
    MIXING:  cpu time    0.0085: real time    0.0085
    --------------------------------------------
      LOOP:  cpu time   72.8799: real time   73.0580

 eigenvalue-minimisations  : 13296
 total energy-change (2. order) :-0.5629190E+02  (-0.3034796E+02)
 number of electron     600.0000055 magnetization       0.0188836
 augmentation part       39.5089058 magnetization       0.1886655

 Broyden mixing:
  rms(total) = 0.82852E+01    rms(broyden)= 0.82852E+01
  rms(prec ) = 0.93198E+01
  weight for this iteration     100.00

 eigenvalues of (default mixing * dielectric matrix)
  average eigenvalue GAMMA=   0.4006
  0.9276  0.3347  0.3347  0.2314  0.1744

 Free energy of the ion-electron system (eV)
  ---------------------------------------------------
  alpha Z        PSCENC =       544.02760051
  Ewald energy   TEWEN  =     36782.41756480
  -Hartree energ DENC   =    -61449.59836586
  -exchange      EXHF   =         0.00000000
  -V(xc)+E(xc)   XCENC  =      2125.25465038
  PAW double counting   =     44197.25356310   -44357.48734782
  entropy T*S    EENTRO =        -0.03036581
  eigenvalues    EBANDS =     -6891.41318532
  atomic energy  EATOM  =     27815.60422923
  Solvation  Ediel_sol  =         0.00000000
  ---------------------------------------------------
  free energy    TOTEN  =     -1233.97165679 eV

  energy without entropy =    -1233.94129098  energy(sigma->0) =    -1233.95647388


--------------------------------------------------------------------------------------------------------




--------------------------------------- Iteration      1(  14)  ---------------------------------------


    POTLOK:  cpu time    0.2955: real time    0.2987
    SETDIJ:  cpu time    0.0240: real time    0.0241
     EDDAV:  cpu time   68.7074: real time   68.8721
       DOS:  cpu time    0.0015: real time    0.0015
    CHARGE:  cpu time    3.0060: real time    3.0131
    MIXING:  cpu time    0.0090: real time    0.0090
    --------------------------------------------
      LOOP:  cpu time   72.0434: real time   72.2184

 eigenvalue-minimisations  : 13096
 total energy-change (2. order) : 0.6404499E+02  (-0.6858357E+01)
 number of electron     600.0000101 magnetization      -0.0892545
 augmentation part       42.1676596 magnetization       1.3143785

 Broyden mixing:
  rms(total) = 0.35858E+01    rms(broyden)= 0.35857E+01
  rms(prec ) = 0.38318E+01
  weight for this iteration     100.00

 eigenvalues of (default mixing * dielectric matrix)
  average eigenvalue GAMMA=   0.4108
  0.9390  0.5326  0.3372  0.3372  0.2158  0.1030

 Free energy of the ion-electron system (eV)
  ---------------------------------------------------
  alpha Z        PSCENC =       544.02760051
  Ewald energy   TEWEN  =     36782.41756480
  -Hartree energ DENC   =    -61549.23709367
  -exchange      EXHF   =         0.00000000
  -V(xc)+E(xc)   XCENC  =      2132.33949235
  PAW double counting   =     47488.69844676   -47649.37967544
  entropy T*S    EENTRO =        -0.01068869
  eigenvalues    EBANDS =     -6734.38654437
  atomic energy  EATOM  =     27815.60422923
  Solvation  Ediel_sol  =         0.00000000
  ---------------------------------------------------
  free energy    TOTEN  =     -1169.92666852 eV

  energy without entropy =    -1169.91597983  energy(sigma->0) =    -1169.92132418


--------------------------------------------------------------------------------------------------------




--------------------------------------- Iteration      1(  15)  ---------------------------------------


    POTLOK:  cpu time    0.2599: real time    0.2626
    SETDIJ:  cpu time    0.0245: real time    0.0246
     EDDAV:  cpu time   71.1065: real time   71.2777
       DOS:  cpu time    0.0015: real time    0.0015
    CHARGE:  cpu time    3.0217: real time    3.0288
    MIXING:  cpu time    0.0094: real time    0.0095
    --------------------------------------------
      LOOP:  cpu time   74.4236: real time   74.6046

 eigenvalue-minimisations  : 13656
 total energy-change (2. order) :-0.5335705E+01  (-0.4371225E+01)
 number of electron     600.0000090 magnetization      -0.2081192
 augmentation part       41.2526641 magnetization       1.0899045

 Broyden mixing:
  rms(total) = 0.45216E+01    rms(broyden)= 0.45215E+01
  rms(prec ) = 0.47358E+01
  weight for this iteration     100.00

 eigenvalues of (default mixing * dielectric matrix)
  average eigenvalue GAMMA=   0.4155
  0.8692  0.8692  0.3397  0.3397  0.2160  0.1375  0.1375

 Free energy of the ion-electron system (eV)
  ---------------------------------------------------
  alpha Z        PSCENC =       544.02760051
  Ewald energy   TEWEN  =     36782.41756480
  -Hartree energ DENC   =    -61657.73898368
  -exchange      EXHF   =         0.00000000
  -V(xc)+E(xc)   XCENC  =      2137.87482147
  PAW double counting   =     50026.36809691   -50188.39208494
[...]
     13.25906     13.77983      3.70463        -0.000646     -0.000950     -0.002016
     11.22300      8.76676      5.90021         0.002821      0.000083     -0.000012
     19.36713     29.13133      5.79221        -0.000149      0.005294      0.000812
     13.33992      9.44768      3.95246        -0.003374      0.001163      0.000441
      9.12316     14.60064      4.54992        -0.001964      0.001448     -0.000919
      0.96660     23.23842      7.13205         0.001494     -0.002865     -0.000874
     17.17399     23.71404      2.41450         0.000384      0.001121      0.002539
     18.77273     27.11322      3.32546        -0.002125      0.000938     -0.001907
     19.45149     27.46600      4.46313        -0.000993     -0.001013      0.000560
     18.73088     25.07272      6.81330        -0.000878      0.000660      0.001036
     11.72942     12.85442      4.87235         0.001306     -0.000554     -0.002364
     11.10324      9.95373      1.65682         0.000159      0.002837     -0.001481
      0.88519     24.42385      2.89301        -0.000074      0.001332     -0.001082
     11.04953     13.20523      6.01005        -0.000882     -0.003080      0.000678
     11.77726     10.32611      2.79147         0.002109      0.000367      0.001475
      9.23978     12.92937      3.22990         0.001074     -0.002320      0.001229
      1.56330     24.77479      4.03178         0.001715     -0.000209      0.001613
      0.93265     27.67600      7.24853         0.000904     -0.002208      0.001092
      9.29072     10.16050      4.44376         0.000448      0.001329     -0.001627
     19.40151     24.69907      5.67717        -0.000609      0.002123     -0.001518
      1.60313     27.30867      6.11032         0.002892      0.000010     -0.001195
      8.61047     10.51393      5.58045        -0.000237      0.000537      0.002323
      8.56640     12.55613      2.09520        -0.000647     -0.000016     -0.002505
     17.20656      1.26010      1.55122        -0.002360      0.001962     -0.001434
     17.10074     21.95095      6.05171        -0.001079      0.000612      0.001184
     13.27864     16.01360      5.64989         0.000448     -0.001315     -0.001087
     13.40706      7.20693      2.01424         0.002177     -0.000835      0.001236
      3.12186     21.62076      3.25235         0.001216      0.000099      0.001345
      6.94356     15.68178      2.85881        -0.001188     -0.000617     -0.002522
      3.22920      1.42651      4.33276         0.001748      0.000157     -0.001252
      7.03935      7.36819      4.79159        -0.000613     -0.000844      0.002674
     16.15391      0.44445      3.42917        -0.002864     -0.000076     -0.002247
     18.20325      2.52469      5.19480         0.003376     -0.001032     -0.004637
     18.09907     20.69676      2.41190        -0.005454      0.000548      0.000555
     12.27124     16.79078      3.72829         0.005550      0.000943      0.002554
     12.41887      6.42518      3.94404        -0.000532     -0.000159      0.006425
      4.17440     22.89991      6.93468         0.002456      0.000290      0.003442
     14.33428     14.72951      1.96376         0.001171     -0.003295      0.001499
     14.45217      8.50309      5.69997         0.002124      0.003084     -0.001103
      5.90050     14.88480      4.75037        -0.003326     -0.001857     -0.001696
      2.11438     20.84624      5.17489         0.006175     -0.001010     -0.000916
      2.24094      2.20953      2.40377         0.000951      0.000372     -0.004117
      8.03363      6.10294      1.14890         0.002643      0.000740      0.007530
     16.05666     22.75145      4.16234        -0.003256      0.001452      0.002132
      4.27180      0.13213      0.64952         0.000581      0.001406     -0.002883
      5.98803      8.18394      2.91293        -0.003522      0.003523      0.004518
      7.94040     16.93313      6.49644        -0.003534      0.000164      0.000601
 -----------------------------------------------------------------------------------
    total drift:                               -0.009223     -0.048344      0.017170


--------------------------------------------------------------------------------------------------------



  FREE ENERGIE OF THE ION-ELECTRON SYSTEM (eV)
  ---------------------------------------------------
  free  energy   TOTEN  =     -1186.03427767 eV

  energy  without entropy=    -1186.00764736  energy(sigma->0) =    -1186.02096252
 


--------------------------------------------------------------------------------------------------------


    POTLOK:  cpu time    0.2785: real time    0.2803


--------------------------------------------------------------------------------------------------------




--------------------------------------------------------------------------------------------------------


  
 reached required accuracy - stopping structural energy minimisation
 writing wavefunctions
     LOOP+:  cpu time 4750.5133: real time 4765.8936
    4ORBIT:  cpu time    0.0000: real time    0.0000
 


 total charge     
 
# of ion       s       p       d       tot
------------------------------------------
    1        0.870   1.770   0.000   2.641
    2        0.869   1.771   0.000   2.639
    3        0.870   1.770   0.000   2.640
    4        0.870   1.770   0.000   2.641
    5        0.869   1.771   0.000   2.639
    6        0.869   1.771   0.000   2.639
    7        0.868   1.771   0.000   2.639
    8        0.870   1.770   0.000   2.640
    9        0.869   1.771   0.000   2.639
   10        0.870   1.770   0.000   2.641
   11        0.869   1.771   0.000   2.639
   12        0.869   1.771   0.000   2.639
   13        0.869   1.771   0.000   2.639
   14        0.870   1.770   0.000   2.640
   15        0.870   1.770   0.000   2.641
   16        0.870   1.770   0.000   2.640
   17        0.864   1.717   0.000   2.581
   18        0.864   1.717   0.000   2.581
   19        0.864   1.717   0.000   2.581
   20        0.864   1.717   0.000   2.580
   21        0.864   1.717   0.000   2.581
   22        0.864   1.717   0.000   2.581
   23        0.864   1.717   0.000   2.581
   24        0.864   1.717   0.000   2.581
   25        0.863   1.717   0.000   2.580
   26        0.864   1.717   0.000   2.581
   27        0.864   1.717   0.000   2.581
   28        0.864   1.717   0.000   2.581
   29        0.863   1.717   0.000   2.581
   30        0.863   1.717   0.000   2.580
   31        0.864   1.717   0.000   2.581
   32        0.864   1.717   0.000   2.581
   33        0.866   1.786   0.000   2.652
   34        0.866   1.784   0.000   2.650
   35        0.866   1.785   0.000   2.651
   36        0.866   1.784   0.000   2.650
   37        0.866   1.785   0.000   2.650
   38        0.866   1.786   0.000   2.652
   39        0.866   1.786   0.000   2.652
   40        0.865   1.785   0.000   2.651
   41        0.865   1.785   0.000   2.650
   42        0.866   1.785   0.000   2.650
   43        0.866   1.785   0.000   2.650
   44        0.866   1.784   0.000   2.650
   45        0.865   1.785   0.000   2.651
   46        0.865   1.785   0.000   2.651
   47        0.866   1.786   0.000   2.652
   48        0.866   1.785   0.000   2.651
   49        0.870   1.768   0.000   2.637
   50        0.870   1.767   0.000   2.637
   51        0.870   1.768   0.000   2.638
   52        0.870   1.767   0.000   2.637
   53        0.870   1.768   0.000   2.638
   54        0.870   1.767   0.000   2.637
   55        0.870   1.767   0.000   2.637
   56        0.870   1.767   0.000   2.637
   57        0.870   1.767   0.000   2.637
   58        0.870   1.767   0.000   2.637
   59        0.870   1.768   0.000   2.638
   60        0.870   1.767   0.000   2.637
   61        0.870   1.767   0.000   2.637
   62        0.870   1.767   0.000   2.637
   63        0.870   1.767   0.000   2.637
   64        0.870   1.768   0.000   2.638
   65        0.848   1.790   0.000   2.638
   66        0.848   1.790   0.000   2.638
   67        0.848   1.790   0.000   2.638
   68        0.848   1.790   0.000   2.638
   69        0.848   1.790   0.000   2.638
   70        0.848   1.790   0.000   2.638
   71        0.848   1.790   0.000   2.638
   72        0.848   1.790   0.000   2.638
   73        0.865   1.791   0.000   2.656
   74        0.865   1.791   0.000   2.656
   75        0.865   1.791   0.000   2.656
   76        0.865   1.790   0.000   2.656
   77        0.865   1.791   0.000   2.656
   78        0.865   1.791   0.000   2.656
   79        0.865   1.790   0.000   2.656
   80        0.865   1.791   0.000   2.656
   81        0.393   0.502   6.045   6.940
   82        0.392   0.500   6.044   6.936
   83        0.392   0.500   6.044   6.937
   84        0.393   0.501   6.045   6.938
   85        0.638   0.048   0.000   0.686
   86        0.638   0.048   0.000   0.686
   87        0.638   0.048   0.000   0.686
   88        0.638   0.048   0.000   0.686
   89        0.638   0.048   0.000   0.686
   90        0.638   0.048   0.000   0.686
   91        0.638   0.048   0.000   0.686
   92        0.638   0.048   0.000   0.686
   93        0.638   0.048   0.000   0.686
   94        0.638   0.048   0.000   0.686
   95        0.638   0.048   0.000   0.686
   96        0.638   0.048   0.000   0.686
   97        0.638   0.048   0.000   0.686
   98        0.638   0.048   0.000   0.686
   99        0.638   0.048   0.000   0.686
  100        0.638   0.048   0.000   0.686
  101        0.634   0.049   0.000   0.683
  102        0.634   0.049   0.000   0.683
  103        0.628   0.051   0.000   0.678
  104        0.628   0.051   0.000   0.678
  105        0.634   0.049   0.000   0.683
  106        0.627   0.051   0.000   0.678
  107        0.627   0.051   0.000   0.678
  108        0.633   0.049   0.000   0.683
  109        0.628   0.051   0.000   0.678
  110        0.627   0.051   0.000   0.678
  111        0.633   0.049   0.000   0.683
  112        0.634   0.049   0.000   0.683
  113        0.628   0.051   0.000   0.678
  114        0.633   0.049   0.000   0.683
  115        0.634   0.049   0.000   0.683
  116        0.628   0.051   0.000   0.678
  117        1.241   2.611   0.000   3.851
  118        1.240   2.610   0.000   3.849
  119        1.241   2.610   0.000   3.851
  120        1.241   2.611   0.000   3.851
  121        1.240   2.609   0.000   3.849
  122        1.240   2.609   0.000   3.849
  123        1.240   2.610   0.000   3.849
  124        1.241   2.610   0.000   3.850
  125        1.240   2.609   0.000   3.849
  126        1.241   2.610   0.000   3.851
  127        1.240   2.609   0.000   3.849
  128        1.240   2.610   0.000   3.849
  129        1.240   2.609   0.000   3.849
  130        1.241   2.610   0.000   3.851
  131        1.241   2.611   0.000   3.851
  132        1.241   2.610   0.000   3.851
  133        1.211   2.730   0.000   3.941
  134        1.211   2.730   0.000   3.941
  135        1.211   2.730   0.000   3.941
  136        1.211   2.730   0.000   3.941
  137        1.211   2.730   0.000   3.941
  138        1.211   2.730   0.000   3.941
  139        1.211   2.730   0.000   3.941
  140        1.211   2.730   0.000   3.941
  141        1.584   3.543   0.000   5.126
  142        1.585   3.537   0.000   5.121
  143        1.585   3.537   0.000   5.121
  144        1.585   3.536   0.000   5.121
  145        1.585   3.537   0.000   5.121
  146        1.584   3.543   0.000   5.126
  147        1.584   3.543   0.000   5.127
  148        1.584   3.542   0.000   5.126
  149        1.584   3.542   0.000   5.126
  150        1.585   3.536   0.000   5.121
  151        1.585   3.537   0.000   5.121
  152        1.585   3.537   0.000   5.121
  153        1.584   3.542   0.000   5.126
  154        1.584   3.542   0.000   5.126
  155        1.584   3.543   0.000   5.127
  156        1.585   3.536   0.000   5.121
--------------------------------------------------
tot        145.950 265.089  24.178 435.217
 


 magnetization (x)
 
# of ion       s       p       d       tot
------------------------------------------
    1        0.003   0.019   0.000   0.022
    2        0.003   0.019   0.000   0.022
    3        0.003   0.019   0.000   0.022
    4       -0.003  -0.019   0.000  -0.022
    5       -0.003  -0.019   0.000  -0.021
    6        0.003   0.019   0.000   0.022
    7       -0.003  -0.019   0.000  -0.022
    8       -0.003  -0.019   0.000  -0.022
    9       -0.003  -0.019   0.000  -0.021
   10        0.003   0.019   0.000   0.022
   11        0.003   0.019   0.000   0.022
   12       -0.003  -0.019   0.000  -0.022
   13        0.003   0.019   0.000   0.022
   14        0.003   0.019   0.000   0.022
   15       -0.003  -0.019   0.000  -0.022
   16       -0.003  -0.019   0.000  -0.022
   17        0.000   0.001   0.000   0.001
   18        0.000   0.001   0.000   0.001
   19        0.000   0.001   0.000   0.001
   20       -0.000  -0.001   0.000  -0.001
   21       -0.000  -0.001   0.000  -0.001
   22        0.000   0.001   0.000   0.001
   23       -0.000  -0.001   0.000  -0.001
   24       -0.000  -0.001   0.000  -0.001
   25       -0.000  -0.001   0.000  -0.001
   26        0.000   0.001   0.000   0.001
   27        0.000   0.001   0.000   0.001
   28       -0.000  -0.001   0.000  -0.001
   29        0.000   0.001   0.000   0.001
   30        0.000   0.001   0.000   0.001
   31       -0.000  -0.001   0.000  -0.001
   32       -0.000  -0.001   0.000  -0.001
   33       -0.000  -0.000   0.000  -0.000
   34        0.000  -0.000   0.000  -0.000
   35        0.000  -0.000   0.000  -0.000
   36       -0.000   0.000   0.000   0.000
   37       -0.000   0.000   0.000   0.000
   38       -0.000  -0.000   0.000  -0.000
   39        0.000   0.000   0.000   0.000
   40        0.000   0.000   0.000   0.000
   41        0.000   0.000   0.000   0.000
   42        0.000  -0.000   0.000  -0.000
   43        0.000  -0.000   0.000  -0.000
   44       -0.000   0.000   0.000   0.000
   45       -0.000  -0.000   0.000  -0.000
   46       -0.000  -0.000   0.000  -0.000
   47        0.000   0.000   0.000   0.000
   48       -0.000   0.000   0.000   0.000
   49        0.000   0.000   0.000   0.000
   50        0.000   0.000   0.000   0.000
   51        0.000   0.000   0.000   0.000
   52       -0.000  -0.000   0.000  -0.000
   53       -0.000  -0.000   0.000  -0.000
   54        0.000   0.000   0.000   0.000
   55       -0.000  -0.000   0.000  -0.000
   56       -0.000  -0.000   0.000  -0.000
   57       -0.000  -0.000   0.000  -0.000
   58        0.000   0.000   0.000   0.000
   59        0.000   0.000   0.000   0.000
   60       -0.000  -0.000   0.000  -0.000
   61        0.000   0.000   0.000   0.000
   62        0.000   0.000   0.000   0.000
   63       -0.000  -0.000   0.000  -0.000
   64       -0.000  -0.000   0.000  -0.000
   65        0.002   0.016   0.000   0.018
   66        0.002   0.016   0.000   0.018
   67       -0.002  -0.016   0.000  -0.018
   68       -0.002  -0.016   0.000  -0.018
   69        0.002   0.016   0.000   0.018
   70       -0.002  -0.016   0.000  -0.018
   71        0.002   0.016   0.000   0.018
   72       -0.002  -0.016   0.000  -0.018
   73        0.000   0.000   0.000   0.000
   74        0.000   0.000   0.000   0.000
   75       -0.000  -0.000   0.000  -0.000
   76       -0.000  -0.000   0.000  -0.000
   77        0.000   0.000   0.000   0.000
   78       -0.000  -0.000   0.000  -0.000
   79        0.000   0.000   0.000   0.000
   80       -0.000  -0.000   0.000  -0.000
   81        0.016   0.062   3.420   3.498
   82        0.016   0.062   3.421   3.499
   83       -0.016  -0.062  -3.421  -3.499
   84       -0.016  -0.062  -3.420  -3.498
   85        0.000  -0.000   0.000   0.000
   86        0.000  -0.000   0.000   0.000
   87        0.000  -0.000   0.000   0.000
   88       -0.000   0.000   0.000  -0.000
   89       -0.000   0.000   0.000  -0.000
   90        0.000  -0.000   0.000   0.000
   91       -0.000   0.000   0.000  -0.000
   92       -0.000   0.000   0.000  -0.000
   93       -0.000   0.000   0.000  -0.000
   94        0.000  -0.000   0.000   0.000
   95        0.000  -0.000   0.000   0.000
   96       -0.000   0.000   0.000  -0.000
   97        0.000  -0.000   0.000   0.000
   98        0.000  -0.000   0.000   0.000
   99       -0.000   0.000   0.000  -0.000
  100       -0.000   0.000   0.000  -0.000
  101       -0.000  -0.000   0.000  -0.000
  102       -0.000  -0.000   0.000  -0.000
  103       -0.000  -0.000   0.000  -0.000
  104        0.000   0.000   0.000   0.000
  105        0.000   0.000   0.000   0.000
  106       -0.000  -0.000   0.000  -0.000
  107        0.000   0.000   0.000   0.000
  108        0.000   0.000   0.000   0.000
  109        0.000   0.000   0.000   0.000
  110       -0.000  -0.000   0.000  -0.000
  111       -0.000  -0.000   0.000  -0.000
  112        0.000   0.000   0.000   0.000
  113       -0.000  -0.000   0.000  -0.000
  114       -0.000  -0.000   0.000  -0.000
  115        0.000   0.000   0.000   0.000
  116        0.000   0.000   0.000   0.000
  117        0.012   0.040   0.000   0.052
  118        0.014   0.048   0.000   0.063
  119        0.012   0.040   0.000   0.052
  120       -0.012  -0.040   0.000  -0.052
  121       -0.014  -0.048   0.000  -0.062
  122        0.014   0.048   0.000   0.062
  123       -0.014  -0.048   0.000  -0.062
  124       -0.012  -0.040   0.000  -0.052
  125       -0.014  -0.048   0.000  -0.063
  126        0.012   0.040   0.000   0.052
  127        0.014   0.048   0.000   0.062
  128       -0.014  -0.048   0.000  -0.062
  129        0.014   0.048   0.000   0.063
  130        0.012   0.040   0.000   0.052
  131       -0.012  -0.040   0.000  -0.052
  132       -0.012  -0.040   0.000  -0.052
  133        0.000   0.000   0.000   0.000
  134        0.000   0.000   0.000   0.000
  135       -0.000  -0.000   0.000  -0.000
  136       -0.000  -0.000   0.000  -0.000
  137        0.000   0.000   0.000   0.000
  138       -0.000  -0.000   0.000  -0.000
  139        0.000   0.000   0.000   0.000
  140       -0.000  -0.000   0.000  -0.000
  141        0.000   0.001   0.000   0.001
  142        0.000   0.001   0.000   0.001
  143        0.000   0.001   0.000   0.001
  144       -0.000  -0.001   0.000  -0.001
  145       -0.000  -0.001   0.000  -0.001
  146        0.000   0.001   0.000   0.001
  147       -0.000  -0.001   0.000  -0.001
  148       -0.000  -0.001   0.000  -0.001
  149       -0.000  -0.001   0.000  -0.001
  150        0.000   0.001   0.000   0.001
  151        0.000   0.001   0.000   0.001
  152       -0.000  -0.001   0.000  -0.001
  153        0.000   0.001   0.000   0.001
  154        0.000   0.001   0.000   0.001
  155       -0.000  -0.001   0.000  -0.001
  156       -0.000  -0.001   0.000  -0.001
--------------------------------------------------
tot          0.000   0.000  -0.000  -0.000
 

 total amount of memory used by VASP MPI-rank0   348543. kBytes
=======================================================================

   base      :      30000. kBytes
   nonlr-proj:      10840. kBytes
   fftplans  :      13505. kBytes
   grid      :      38845. kBytes
   one-center:       1213. kBytes
   wavefun   :     254140. kBytes
 
  
  
 General timing and accounting informations for this job:
 ========================================================
  
                  Total CPU time used (sec):     4820.617
                            User time (sec):     4615.388
                          System time (sec):      205.229
                         Elapsed time (sec):     4836.472
  
                   Maximum memory used (kb):     1170564.
                   Average memory used (kb):           0.
  
                          Minor page faults:      1194150
                          Major page faults:            0
                 Voluntary context switches:        19467
