       N       E                     dE             d eps       ncg     rms          rms(c)
DAV:   1     0.452661321851E+04    0.45266E+04   -0.31894E+05 10752   0.163E+03
DAV:   2    -0.753578899691E+03   -0.52802E+04   -0.50624E+04 12896   0.366E+02
DAV:   3    -0.126887638643E+04   -0.51530E+03   -0.50397E+03 12992   0.125E+02
DAV:   4    -0.129117484543E+04   -0.22298E+02   -0.22113E+02 15040   0.309E+01
DAV:   5    -0.129173624317E+04   -0.56140E+00   -0.56005E+00 13568   0.429E+00
DAV:   6    -0.129177374425E+04   -0.37501E-01   -0.37487E-01 16640   0.125E+00
DAV:   7    -0.129177427024E+04   -0.52599E-03   -0.52579E-03 13664   0.117E-01
DAV:   8    -0.129177428812E+04   -0.17880E-04   -0.17878E-04 16608   0.245E-02    0.970E+01
DAV:   9    -0.167918073249E+04   -0.38741E+03   -0.44718E+03 18944   0.981E+01    0.379E+02
DAV:  10    -0.159644111267E+04    0.82740E+02   -0.41244E+02 13440   0.357E+01    0.240E+02
DAV:  11    -0.121679107938E+04    0.37965E+03   -0.24281E+02 15744   0.736E+01    0.117E+02
DAV:  12    -0.115090864586E+04    0.65882E+02   -0.42757E+02 16384   0.104E+02    0.457E+01
DAV:  13    -0.117773071391E+04   -0.26822E+02   -0.23231E+02 14176   0.222E+01    0.601E+01
DAV:  14    -0.119698081341E+04   -0.19250E+02   -0.46981E+02 15808   0.451E+01    0.700E+01
DAV:  15    -0.115687989404E+04    0.40101E+02   -0.76480E+01 14496   0.332E+01    0.301E+01
DAV:  16    -0.116407102823E+04   -0.71911E+01   -0.15430E+02 15840   0.193E+01    0.523E+01
DAV:  17    -0.116217491267E+04    0.18961E+01   -0.12876E+02 16000   0.168E+01    0.433E+01
DAV:  18    -0.115841508835E+04    0.37598E+01   -0.53127E+01 15744   0.935E+00    0.302E+01
DAV:  19    -0.115900471841E+04   -0.58963E+00   -0.53382E+01 15712   0.937E+00    0.235E+01
DAV:  20    -0.116139460966E+04   -0.23899E+01   -0.10690E+01 13216   0.483E+00    0.215E+01
DAV:  21    -0.116270644445E+04   -0.13118E+01   -0.22804E+01 13536   0.625E+00    0.196E+01
DAV:  22    -0.116339106289E+04   -0.68462E+00   -0.25217E+00 13504   0.244E+00    0.178E+01
DAV:  23    -0.116331142453E+04    0.79638E-01   -0.13097E-01 12832   0.656E-01    0.175E+01
DAV:  24    -0.116299709255E+04    0.31433E+00   -0.38103E-01 13664   0.147E+00    0.184E+01
DAV:  25    -0.116285501508E+04    0.14208E+00   -0.76894E-02 14016   0.594E-01    0.178E+01
DAV:  26    -0.116301091594E+04   -0.15590E+00   -0.19273E-01 14368   0.873E-01    0.168E+01
DAV:  27    -0.116358456585E+04   -0.57365E+00   -0.10025E+00 13760   0.149E+00    0.177E+01
DAV:  28    -0.116358197870E+04    0.25871E-02   -0.24582E-01 15072   0.859E-01    0.178E+01
DAV:  29    -0.116346841042E+04    0.11357E+00   -0.41669E-02 14176   0.497E-01    0.174E+01
DAV:  30    -0.116345567668E+04    0.12734E-01   -0.10376E-02 13184   0.158E-01    0.173E+01
DAV:  31    -0.116333660246E+04    0.11907E+00   -0.80034E-02 15136   0.556E-01    0.167E+01
DAV:  32    -0.116362037557E+04   -0.28377E+00   -0.68564E-01 14784   0.147E+00    0.186E+01
DAV:  33    -0.116300522008E+04    0.61516E+00   -0.11323E+00 14976   0.207E+00    0.186E+01
DAV:  34    -0.116273656863E+04    0.26865E+00   -0.79674E-02 14240   0.631E-01    0.196E+01
DAV:  35    -0.116459177391E+04   -0.18552E+01   -0.38734E+00 13344   0.326E+00    0.183E+01
DAV:  36    -0.116604018622E+04   -0.14484E+01   -0.16495E+00 14304   0.222E+00    0.177E+01
DAV:  37    -0.116653207229E+04   -0.49189E+00   -0.65471E-01 14176   0.155E+00    0.166E+01
DAV:  38    -0.116668340853E+04   -0.15134E+00   -0.14226E-01 15424   0.124E+00    0.155E+01
DAV:  39    -0.116676304516E+04   -0.79637E-01   -0.49198E-02 15104   0.723E-01    0.146E+01
DAV:  40    -0.116681568279E+04   -0.52638E-01   -0.14320E-01 14816   0.136E+00    0.140E+01
DAV:  41    -0.116690713375E+04   -0.91451E-01   -0.16268E-01 14816   0.111E+00    0.131E+01
DAV:  42    -0.116742213555E+04   -0.51500E+00   -0.90360E-01 14048   0.205E+00    0.114E+01
DAV:  43    -0.116745617663E+04   -0.34041E-01   -0.16492E-01 14432   0.102E+00    0.105E+01
DAV:  44    -0.116745763562E+04   -0.14590E-02   -0.24528E-01 14880   0.105E+00    0.987E+00
DAV:  45    -0.116750141281E+04   -0.43777E-01   -0.12198E+00 16480   0.179E+00    0.799E+00
DAV:  46    -0.116751041507E+04   -0.90023E-02   -0.16683E-01 12608   0.121E+00    0.625E+00
DAV:  47    -0.116746283364E+04    0.47581E-01   -0.37342E-02 15296   0.777E-01    0.605E+00
DAV:  48    -0.116742958166E+04    0.33252E-01   -0.27351E-01 14784   0.132E+00    0.600E+00
DAV:  49    -0.116746558950E+04   -0.36008E-01   -0.54337E-02 14432   0.563E-01    0.566E+00
DAV:  50    -0.116748447691E+04   -0.18887E-01   -0.12632E-02 14016   0.327E-01    0.557E+00
DAV:  51    -0.116752082224E+04   -0.36345E-01   -0.29341E-02 13632   0.546E-01    0.513E+00
DAV:  52    -0.116753432169E+04   -0.13499E-01   -0.11037E-01 14784   0.708E-01    0.468E+00
DAV:  53    -0.116753021690E+04    0.41048E-02   -0.31792E-02 15264   0.473E-01    0.415E+00
DAV:  54    -0.116726003422E+04    0.27018E+00   -0.35181E-01 13184   0.201E+00    0.666E+00
DAV:  55    -0.116730583873E+04   -0.45805E-01   -0.62551E-02 14336   0.622E-01    0.703E+00
DAV:  56    -0.116735582102E+04   -0.49982E-01   -0.11106E-02 14816   0.405E-01    0.664E+00
DAV:  57    -0.116736688593E+04   -0.11065E-01   -0.11392E-03 14944   0.946E-02    0.660E+00
DAV:  58    -0.116742941587E+04   -0.62530E-01   -0.21096E-02 14912   0.617E-01    0.581E+00
DAV:  59    -0.116756108210E+04   -0.13167E+00   -0.13952E-01 14784   0.183E+00    0.400E+00
DAV:  60    -0.116768596925E+04   -0.12489E+00   -0.35317E-01 14976   0.148E+00    0.388E+00
DAV:  61    -0.116765122996E+04    0.34739E-01   -0.96459E-02 14592   0.844E-01    0.366E+00
DAV:  62    -0.116769352575E+04   -0.42296E-01   -0.22761E-02 15136   0.761E-01    0.302E+00
DAV:  63    -0.116772174401E+04   -0.28218E-01   -0.76661E-02 14656   0.751E-01    0.255E+00
DAV:  64    -0.116771013167E+04    0.11612E-01   -0.14416E-02 14304   0.430E-01    0.236E+00
DAV:  65    -0.116768716669E+04    0.22965E-01   -0.67359E-03 15360   0.500E-01    0.214E+00
DAV:  66    -0.116765506981E+04    0.32097E-01   -0.11669E-02 17120   0.647E-01    0.155E+00
DAV:  67    -0.116764882568E+04    0.62441E-02   -0.10979E-02 15552   0.533E-01    0.158E+00
DAV:  68    -0.116764941151E+04   -0.58583E-03   -0.69518E-03 13536   0.265E-01    0.119E+00
DAV:  69    -0.116765119721E+04   -0.17857E-02   -0.96621E-04 14176   0.142E-01    0.126E+00
DAV:  70    -0.116765368795E+04   -0.24907E-02   -0.86961E-04 17152   0.232E-01    0.887E-01
DAV:  71    -0.116765419169E+04   -0.50374E-03   -0.35392E-03 14528   0.230E-01    0.647E-01
DAV:  72    -0.116765403012E+04    0.16157E-03   -0.40366E-03 14784   0.233E-01    0.654E-01
DAV:  73    -0.116765406073E+04   -0.30609E-04   -0.11174E-03 15104   0.982E-02    0.652E-01
DAV:  74    -0.116765397203E+04    0.88698E-04   -0.11524E-03 15456   0.114E-01    0.387E-01
DAV:  75    -0.116765458934E+04   -0.61731E-03   -0.75285E-04 13952   0.151E-01    0.639E-01
DAV:  76    -0.116765440248E+04    0.18686E-03   -0.53496E-04 14912   0.688E-02    0.580E-01
DAV:  77    -0.116765398936E+04    0.41312E-03   -0.11788E-04 15872   0.733E-02    0.339E-01
DAV:  78    -0.116765398226E+04    0.70940E-05   -0.13077E-04 14976   0.550E-02    0.186E-01
DAV:  79    -0.116765409116E+04   -0.10890E-03   -0.54741E-04 14880   0.678E-02    0.157E-01
DAV:  80    -0.116765403897E+04    0.52193E-04   -0.77297E-05 14528   0.361E-02    0.877E-02
DAV:  81    -0.116765403615E+04    0.28193E-05   -0.67559E-05 13760   0.269E-02    0.835E-02
DAV:  82    -0.116765404370E+04   -0.75447E-05   -0.71172E-05 14496   0.293E-02    0.868E-02
DAV:  83    -0.116765402362E+04    0.20074E-04   -0.85918E-05 14336   0.400E-02    0.335E-02
DAV:  84    -0.116765403192E+04   -0.82994E-05   -0.49508E-05 13600   0.252E-02    0.551E-02
DAV:  85    -0.116765403602E+04   -0.40949E-05   -0.90897E-06 12800   0.904E-03    0.617E-02
DAV:  86    -0.116765402538E+04    0.10633E-04   -0.11425E-05 13472   0.173E-02    0.165E-02
DAV:  87    -0.116765402949E+04   -0.41089E-05   -0.54917E-06 11104   0.846E-03    0.355E-02
DAV:  88    -0.116765402943E+04    0.59656E-07   -0.15293E-06  8736   0.381E-03
   1 F= -.11847034E+04 E0= -.11846863E+04  d E =-.118470E+04  mag=     0.0032
