 vasp.6.0.8 29Jun18 (build Mar 14 2019 11:44:20) complex                        
  
 executed on             LinuxIFC date 2020.12.27  17:33:33
 running  128 mpi-ranks, with    1 threads/rank
 distrk:  each k-point on  128 cores,    1 groups
 distr:  one band on NCORES_PER_BAND=   4 cores,   32 groups


--------------------------------------------------------------------------------------------------------


 INCAR:
 POTCAR:    PAW_PBE C 08Apr2002                   
 POTCAR:    PAW_PBE Fe 06Sep2000                  
 POTCAR:    PAW_PBE H 15Jun2001                   
 POTCAR:    PAW_PBE N 08Apr2002                   
 POTCAR:    PAW_PBE O 08Apr2002                   
 POTCAR:    PAW_PBE C 08Apr2002                   
   VRHFIN =C: s2p2                                                              
   LEXCH  = PE                                                                  
   EATOM  =   147.1560 eV,   10.8157 Ry                                         
                                                                                
   TITEL  = PAW_PBE C 08Apr2002                                                 
   LULTRA =        F    use ultrasoft PP ?                                      
   IUNSCR =        1    unscreen: 0-lin 1-nonlin 2-no                           
   RPACOR =    1.200    partial core radius                                     
   POMASS =   12.011; ZVAL   =    4.000    mass and valenz                      
   RCORE  =    1.500    outmost cutoff radius                                   
   RWIGS  =    1.630; RWIGS  =    0.863    wigner-seitz radius (au A)           
   ENMAX  =  400.000; ENMIN  =  300.000 eV                                      
   ICORE  =        2    local potential                                         
   LCOR   =        T    correct aug charges                                     
   LPAW   =        T    paw PP                                                  
   EAUG   =  644.873                                                            
   DEXC   =    0.000                                                            
   RMAX   =    1.529    core radius for proj-oper                               
   RAUG   =    1.300    factor for augmentation sphere                          
   RDEP   =    1.501    radius for radial grids                                 
   RDEPT  =    1.300    core radius for aug-charge                              
                                                                                
   Atomic configuration                                                         
    4 entries                                                                   
     n  l   j            E        occ.                                          
     1  0  0.50      -273.3789   2.0000                                         
     2  0  0.50       -13.7508   2.0000                                         
     2  1  0.50        -5.2854   2.0000                                         
     3  2  1.50        -5.4423   0.0000                                         
   Description                                                                  
     l       E           TYP  RCUT    TYP  RCUT                                 
     0    -13.7508458     23  1.200                                             
     0     -8.2022199     23  1.200                                             
     1     -5.2854383     23  1.500                                             
     1     34.0145650     23  1.500                                             
     2     -5.4423304      7  1.500                                             
  local pseudopotential read in
  partial core-charges read in
  partial kinetic energy density read in
  atomic valenz-charges read in
  non local Contribution for L=           0  read in
    real space projection operators read in
  non local Contribution for L=           0  read in
    real space projection operators read in
  non local Contribution for L=           1  read in
    real space projection operators read in
  non local Contribution for L=           1  read in
    real space projection operators read in
    PAW grid and wavefunctions read in
 
   number of l-projection  operators is LMAX  =           4
   number of lm-projection operators is LMMAX =           8
 
 POTCAR:    PAW_PBE Fe 06Sep2000                  
   VRHFIN =Fe:  d7 s1                                                           
   LEXCH  = PE                                                                  
   EATOM  =   594.3153 eV,   43.6809 Ry                                         
                                                                                
   TITEL  = PAW_PBE Fe 06Sep2000                                                
   LULTRA =        F    use ultrasoft PP ?                                      
   IUNSCR =        1    unscreen: 0-lin 1-nonlin 2-no                           
   RPACOR =    2.000    partial core radius                                     
   POMASS =   55.847; ZVAL   =    8.000    mass and valenz                      
   RCORE  =    2.300    outmost cutoff radius                                   
   RWIGS  =    2.460; RWIGS  =    1.302    wigner-seitz radius (au A)           
   ENMAX  =  267.882; ENMIN  =  200.911 eV                                      
   RCLOC  =    1.701    cutoff for local pot                                    
   LCOR   =        T    correct aug charges                                     
   LPAW   =        T    paw PP                                                  
   EAUG   =  511.368                                                            
   DEXC   =    0.000                                                            
   RMAX   =    2.356    core radius for proj-oper                               
   RAUG   =    1.300    factor for augmentation sphere                          
   RDEP   =    2.442    radius for radial grids                                 
   RDEPT  =    1.890    core radius for aug-charge                              
                                                                                
   Atomic configuration                                                         
    9 entries                                                                   
     n  l   j            E        occ.                                          
     1  0  0.50     -6993.8440   2.0000                                         
     2  0  0.50      -814.6047   2.0000                                         
     2  1  1.50      -693.3689   6.0000                                         
     3  0  0.50       -89.4732   2.0000                                         
     3  1  1.50       -55.6373   6.0000                                         
     3  2  2.50        -3.8151   7.0000                                         
     4  0  0.50        -4.2551   1.0000                                         
     4  1  1.50        -3.4015   0.0000                                         
     4  3  2.50        -1.3606   0.0000                                         
   Description                                                                  
     l       E           TYP  RCUT    TYP  RCUT                                 
     2     -3.8151135     23  2.300                                             
     2     -5.1756961     23  2.300                                             
     0     -4.2550963     23  2.300                                             
     0      7.2035603     23  2.300                                             
     1     -2.7211652     23  2.300                                             
     1     18.4316424     23  2.300                                             
  local pseudopotential read in
  partial core-charges read in
  partial kinetic energy density read in
  atomic valenz-charges read in
  non local Contribution for L=           2  read in
    real space projection operators read in
  non local Contribution for L=           2  read in
    real space projection operators read in
  non local Contribution for L=           0  read in
    real space projection operators read in
  non local Contribution for L=           0  read in
    real space projection operators read in
  non local Contribution for L=           1  read in
    real space projection operators read in
  non local Contribution for L=           1  read in
    real space projection operators read in
    PAW grid and wavefunctions read in
 
   number of l-projection  operators is LMAX  =           6
   number of lm-projection operators is LMMAX =          18
 
 POTCAR:    PAW_PBE H 15Jun2001                   
   VRHFIN =H: ultrasoft test                                                    
   LEXCH  = PE                                                                  
   EATOM  =    12.4884 eV,    0.9179 Ry                                         
                                                                                
   TITEL  = PAW_PBE H 15Jun2001                                                 
   LULTRA =        F    use ultrasoft PP ?                                      
   IUNSCR =        0    unscreen: 0-lin 1-nonlin 2-no                           
   RPACOR =    0.000    partial core radius                                     
   POMASS =    1.000; ZVAL   =    1.000    mass and valenz                      
   RCORE  =    1.100    outmost cutoff radius                                   
   RWIGS  =    0.700; RWIGS  =    0.370    wigner-seitz radius (au A)           
   ENMAX  =  250.000; ENMIN  =  200.000 eV                                      
   RCLOC  =    0.701    cutoff for local pot                                    
   LCOR   =        T    correct aug charges                                     
   LPAW   =        T    paw PP                                                  
   EAUG   =  400.000                                                            
   RMAX   =    1.123    core radius for proj-oper                               
   RAUG   =    1.200    factor for augmentation sphere                          
   RDEP   =    1.112    radius for radial grids                                 
   RDEPT  =    0.926    core radius for aug-charge                              
                                                                                
   Atomic configuration                                                         
    2 entries                                                                   
     n  l   j            E        occ.                                          
     1  0  0.50        -6.4927   1.0000                                         
     2  1  0.50        -3.4015   0.0000                                         
   Description                                                                  
     l       E           TYP  RCUT    TYP  RCUT                                 
     0     -6.4927494     23  1.100                                             
     0      6.8029130     23  1.100                                             
     1     -4.0817478     23  1.100                                             
  local pseudopotential read in
  atomic valenz-charges read in
  non local Contribution for L=           0  read in
    real space projection operators read in
  non local Contribution for L=           0  read in
    real space projection operators read in
  non local Contribution for L=           1  read in
    real space projection operators read in
    PAW grid and wavefunctions read in
 
   number of l-projection  operators is LMAX  =           3
   number of lm-projection operators is LMMAX =           5
 
 POTCAR:    PAW_PBE N 08Apr2002                   
   VRHFIN =N: s2p3                                                              
   LEXCH  = PE                                                                  
   EATOM  =   264.5486 eV,   19.4438 Ry                                         
                                                                                
   TITEL  = PAW_PBE N 08Apr2002                                                 
   LULTRA =        F    use ultrasoft PP ?                                      
   IUNSCR =        1    unscreen: 0-lin 1-nonlin 2-no                           
   RPACOR =    1.200    partial core radius                                     
   POMASS =   14.001; ZVAL   =    5.000    mass and valenz                      
   RCORE  =    1.500    outmost cutoff radius                                   
   RWIGS  =    1.400; RWIGS  =    0.741    wigner-seitz radius (au A)           
   ENMAX  =  400.000; ENMIN  =  300.000 eV                                      
   ICORE  =        2    local potential                                         
   LCOR   =        T    correct aug charges                                     
   LPAW   =        T    paw PP                                                  
   EAUG   =  627.112                                                            
   DEXC   =    0.000                                                            
   RMAX   =    1.529    core radius for proj-oper                               
   RAUG   =    1.300    factor for augmentation sphere                          
   RDEP   =    1.514    radius for radial grids                                 
   RDEPT  =    1.338    core radius for aug-charge                              
                                                                                
   Atomic configuration                                                         
    4 entries                                                                   
     n  l   j            E        occ.                                          
     1  0  0.50      -384.7179   2.0000                                         
     2  0  0.50       -18.5828   2.0000                                         
     2  1  0.50        -7.0898   3.0000                                         
     3  2  1.50        -6.8029   0.0000                                         
   Description                                                                  
     l       E           TYP  RCUT    TYP  RCUT                                 
     0    -18.5828119     23  1.200                                             
     0    -13.5018863     23  1.200                                             
     1     -7.0897853     23  1.500                                             
     1      9.5240782     23  1.500                                             
     2     -6.8029130      7  1.500                                             
  local pseudopotential read in
  partial core-charges read in
  partial kinetic energy density read in
  atomic valenz-charges read in
  non local Contribution for L=           0  read in
    real space projection operators read in
  non local Contribution for L=           0  read in
    real space projection operators read in
  non local Contribution for L=           1  read in
    real space projection operators read in
  non local Contribution for L=           1  read in
    real space projection operators read in
    PAW grid and wavefunctions read in
 
   number of l-projection  operators is LMAX  =           4
   number of lm-projection operators is LMMAX =           8
 
 POTCAR:    PAW_PBE O 08Apr2002                   
   VRHFIN =O: s2p4                                                              
   LEXCH  = PE                                                                  
   EATOM  =   432.3788 eV,   31.7789 Ry                                         
                                                                                
   TITEL  = PAW_PBE O 08Apr2002                                                 
   LULTRA =        F    use ultrasoft PP ?                                      
   IUNSCR =        1    unscreen: 0-lin 1-nonlin 2-no                           
   RPACOR =    1.200    partial core radius                                     
   POMASS =   16.000; ZVAL   =    6.000    mass and valenz                      
   RCORE  =    1.520    outmost cutoff radius                                   
   RWIGS  =    1.550; RWIGS  =    0.820    wigner-seitz radius (au A)           
   ENMAX  =  400.000; ENMIN  =  300.000 eV                                      
   ICORE  =        2    local potential                                         
   LCOR   =        T    correct aug charges                                     
   LPAW   =        T    paw PP                                                  
   EAUG   =  605.392                                                            
   DEXC   =    0.000                                                            
   RMAX   =    1.553    core radius for proj-oper                               
   RAUG   =    1.300    factor for augmentation sphere                          
   RDEP   =    1.550    radius for radial grids                                 
   RDEPT  =    1.329    core radius for aug-charge                              
                                                                                
   Atomic configuration                                                         
    4 entries                                                                   
     n  l   j            E        occ.                                          
     1  0  0.50      -514.6923   2.0000                                         
     2  0  0.50       -23.9615   2.0000                                         
     2  1  0.50        -9.0305   4.0000                                         
     3  2  1.50        -9.5241   0.0000                                         
   Description                                                                  
     l       E           TYP  RCUT    TYP  RCUT                                 
     0    -23.9615318     23  1.200                                             
     0     -9.5240782     23  1.200                                             
     1     -9.0304911     23  1.520                                             
     1      8.1634956     23  1.520                                             
     2     -9.5240782      7  1.500                                             
  local pseudopotential read in
  partial core-charges read in
  partial kinetic energy density read in
  kinetic energy density of atom read in
  atomic valenz-charges read in
  non local Contribution for L=           0  read in
    real space projection operators read in
  non local Contribution for L=           0  read in
    real space projection operators read in
  non local Contribution for L=           1  read in
    real space projection operators read in
  non local Contribution for L=           1  read in
    real space projection operators read in
    PAW grid and wavefunctions read in
 
   number of l-projection  operators is LMAX  =           4
   number of lm-projection operators is LMMAX =           8
 
 Optimization of the real space projectors (new method)

 maximal supplied QI-value         = 25.13
 optimisation between [QCUT,QGAM] = [ 12.32, 24.88] = [ 42.47,173.37] Ry 
 Optimized for a Real-space Cutoff    1.06 Angstroem

   l    n(q)    QCUT    max X(q) W(low)/X(q) W(high)/X(q)  e(spline) 
   0      8    12.315   115.676    0.34E-03    0.18E-03    0.23E-06
   0      8    12.315    87.132    0.34E-03    0.18E-03    0.22E-06
   1      7    12.315     4.429    0.45E-03    0.12E-03    0.18E-06
   1      7    12.315     2.733    0.35E-03    0.97E-04    0.15E-06
 Optimization of the real space projectors (new method)

 maximal supplied QI-value         = 16.25
 optimisation between [QCUT,QGAM] = [ 12.51, 25.03] = [ 43.85,175.40] Ry 
 Optimized for a Real-space Cutoff    1.35 Angstroem

   l    n(q)    QCUT    max X(q) W(low)/X(q) W(high)/X(q)  e(spline) 
   2      9    12.514    80.901    0.12E-03    0.34E-03    0.58E-06
   2      9    12.514    75.754    0.12E-03    0.34E-03    0.59E-06
   0     10    12.514    58.752    0.17E-03    0.81E-04    0.93E-07
   0     10    12.514    30.679    0.15E-03    0.74E-04    0.88E-07
   1     10    12.514    17.977    0.11E-03    0.79E-04    0.24E-06
   1     10    12.514    13.559    0.97E-04    0.61E-04    0.20E-06
 Optimization of the real space projectors (new method)

 maximal supplied QI-value         = 34.20
 optimisation between [QCUT,QGAM] = [ 12.31, 24.97] = [ 42.46,174.58] Ry 
 Optimized for a Real-space Cutoff    1.00 Angstroem

   l    n(q)    QCUT    max X(q) W(low)/X(q) W(high)/X(q)  e(spline) 
   0      7    12.313    19.460    0.14E-03    0.42E-03    0.16E-06
   0      7    12.313    12.209    0.12E-03    0.40E-03    0.16E-06
   1      7    12.313     4.655    0.33E-03    0.59E-03    0.89E-07
 Optimization of the real space projectors (new method)

 maximal supplied QI-value         = 25.13
 optimisation between [QCUT,QGAM] = [ 12.32, 24.88] = [ 42.47,173.37] Ry 
 Optimized for a Real-space Cutoff    1.20 Angstroem

   l    n(q)    QCUT    max X(q) W(low)/X(q) W(high)/X(q)  e(spline) 
   0      9    12.315    79.467    0.14E-03    0.22E-04    0.37E-06
   0      9    12.315    66.151    0.14E-03    0.23E-04    0.36E-06
   1      8    12.315    22.077    0.30E-03    0.54E-03    0.45E-06
   1      8    12.315    15.894    0.30E-03    0.55E-03    0.45E-06
 Optimization of the real space projectors (new method)

 maximal supplied QI-value         = 24.76
 optimisation between [QCUT,QGAM] = [ 12.38, 25.00] = [ 42.90,175.06] Ry 
 Optimized for a Real-space Cutoff    1.13 Angstroem

   l    n(q)    QCUT    max X(q) W(low)/X(q) W(high)/X(q)  e(spline) 
   0      8    12.378    20.381    0.16E-03    0.54E-05    0.27E-06
   0      8    12.378    15.268    0.17E-03    0.61E-05    0.29E-06
   1      8    12.378     5.964    0.38E-03    0.23E-03    0.28E-06
   1      8    12.378     5.382    0.33E-03    0.20E-03    0.25E-06
  PAW_PBE C 08Apr2002                   :
 energy of atom  1       EATOM= -147.1560
 kinetic energy error for atom=    0.0057 (will be added to EATOM!!)
  PAW_PBE Fe 06Sep2000                  :
 energy of atom  2       EATOM= -594.3153
 kinetic energy error for atom=    0.0017 (will be added to EATOM!!)
  PAW_PBE H 15Jun2001                   :
 energy of atom  3       EATOM=  -12.4884
 kinetic energy error for atom=    0.0004 (will be added to EATOM!!)
  PAW_PBE N 08Apr2002                   :
 energy of atom  4       EATOM= -264.5486
 kinetic energy error for atom=    0.0103 (will be added to EATOM!!)
  PAW_PBE O 08Apr2002                   :
 energy of atom  5       EATOM= -432.3788
 kinetic energy error for atom=    0.0168 (will be added to EATOM!!)
 
 
 POSCAR: FeH_8
  positions in direct lattice
  velocities in cartesian coordinates
 exchange correlation table for  LEXCH =        8
   RHO(1)=    0.500       N(1)  =     2000
   RHO(2)=  100.500       N(2)  =     4000
 


--------------------------------------------------------------------------------------------------------


 ion  position               nearest neighbor table
   1  0.740  0.951  0.997- 107 1.09 117 1.36  65 1.40
   2  0.888  0.953  0.313- 112 1.08 118 1.34  65 1.39
   3  0.726  0.799  0.838- 116 1.09 119 1.36  66 1.40
   4  0.759  0.451  0.498- 110 1.09 120 1.36  67 1.40
   5  0.625  0.296  0.024- 111 1.08 121 1.34  68 1.39
   6  0.112  0.794  0.030- 115 1.08 122 1.34  69 1.39
   7  0.611  0.453  0.812- 101 1.08 123 1.34  67 1.39
   8  0.773  0.299  0.339- 113 1.09 124 1.36  68 1.40
   9  0.373  0.452  0.314- 114 1.08 125 1.34  70 1.39
  10  0.261  0.797  0.346- 104 1.09 126 1.36  69 1.40
  11  0.125  0.952  0.817- 105 1.08 127 1.34  71 1.39
  12  0.387  0.294  0.527- 102 1.08 128 1.34  72 1.39
  13  0.875  0.796  0.525- 108 1.08 129 1.34  66 1.39
  14  0.274  0.948  0.504- 109 1.09 130 1.36  71 1.40
  15  0.239  0.297  0.842- 106 1.08 131 1.36  72 1.40
  16  0.226  0.449  1.000- 103 1.09 132 1.36  70 1.40
  17  0.693  0.029  0.334- 141 1.23 133 1.41  33 1.47
  18  0.846  0.048  0.958- 142 1.23 133 1.41  34 1.47
  19  0.823  0.702  0.879- 143 1.23 134 1.41  35 1.47
  20  0.653  0.548  0.457- 144 1.23 135 1.41  36 1.47
  21  0.677  0.202  0.379- 145 1.23 136 1.41  37 1.47
  22  0.307  0.718  0.008- 146 1.23 137 1.41  38 1.47
  23  0.805  0.529  0.835- 147 1.23 135 1.41  39 1.47
  24  0.829  0.221  0.003- 148 1.23 136 1.41  40 1.47
  25  0.170  0.527  0.336- 149 1.23 138 1.41  41 1.47
  26  0.154  0.700  0.384- 150 1.23 137 1.41  42 1.47
  27  0.177  0.046  0.463- 151 1.23 139 1.41  43 1.47
  28  0.346  0.200  0.883- 152 1.23 140 1.41  44 1.47
  29  0.671  0.721  0.501- 153 1.23 134 1.41  45 1.47
  30  0.328  0.027  0.840- 154 1.23 139 1.41  46 1.47
  31  0.194  0.218  0.506- 155 1.23 140 1.41  47 1.47
  32  0.323  0.546  0.960- 156 1.23 138 1.41  48 1.47
  33  0.698  0.073  0.346-  49 1.38  73 1.41  17 1.47
  34  0.837  0.092  0.970-  50 1.39  73 1.41  18 1.47
  35  0.813  0.658  0.867-  51 1.39  74 1.41  19 1.47
  36  0.662  0.592  0.469-  52 1.39  75 1.41  20 1.47
  37  0.687  0.158  0.367-  53 1.39  76 1.41  21 1.47
  38  0.301  0.674  0.995-  54 1.38  77 1.41  22 1.47
  39  0.800  0.573  0.847-  55 1.38  75 1.41  23 1.47
  40  0.825  0.177  0.991-  56 1.38  76 1.41  24 1.47
  41  0.174  0.571  0.349-  57 1.38  78 1.41  25 1.47
  42  0.163  0.656  0.371-  58 1.39  77 1.41  26 1.47
  43  0.186  0.090  0.474-  59 1.39  79 1.41  27 1.47
  44  0.337  0.156  0.872-  60 1.39  80 1.41  28 1.47
  45  0.675  0.677  0.489-  61 1.38  74 1.41  29 1.47
  46  0.325  0.071  0.852-  62 1.38  79 1.41  30 1.47
  47  0.199  0.174  0.494-  63 1.38  80 1.41  31 1.47
  48  0.313  0.590  0.973-  64 1.39  78 1.41  32 1.47
  49  0.628  0.086  0.535-  88 1.08  33 1.38  53 1.39
  50  0.902  0.122  0.793-  99 1.08  34 1.39  56 1.40
  51  0.877  0.627  0.046-  93 1.08  35 1.39  55 1.40
  52  0.598  0.623  0.291-  90 1.08  36 1.39  61 1.40
  53  0.622  0.127  0.545-  98 1.08  37 1.39  49 1.39
  54  0.371  0.662  0.806-  96 1.08  38 1.38  64 1.39
  55  0.870  0.585  0.036-  86 1.08  39 1.38  51 1.40
  56  0.895  0.164  0.802-  87 1.08  40 1.38  50 1.40
  57  0.104  0.583  0.538-  95 1.08  41 1.38  58 1.40
  58  0.097  0.625  0.548-  91 1.08  42 1.39  57 1.40
  59  0.122  0.120  0.296-  92 1.08  43 1.39  63 1.40
  60  0.401  0.125  0.050-  85 1.08  44 1.39  62 1.40
  61  0.606  0.665  0.300-  89 1.08  45 1.38  52 1.40
  62  0.394  0.083  0.041- 100 1.08  46 1.38  60 1.40
  63  0.129  0.162  0.305-  94 1.08  47 1.38  59 1.40
  64  0.378  0.621  0.796-  97 1.08  48 1.39  54 1.39
  65  0.786  0.977  0.144-   2 1.39   1 1.40 133 1.41
  66  0.769  0.773  0.692-  13 1.39   3 1.40 134 1.41
  67  0.712  0.477  0.643-   7 1.39   4 1.40 135 1.41
  68  0.731  0.273  0.192-   5 1.39   8 1.40 136 1.41
  69  0.214  0.771  0.199-   6 1.39  10 1.40 137 1.41
  70  0.268  0.475  0.146-   9 1.39  16 1.40 138 1.41
  71  0.231  0.975  0.651-  11 1.39  14 1.40 139 1.41
  72  0.286  0.271  0.696-  12 1.39  15 1.40 140 1.41
  73  0.764  0.104  0.163-  33 1.41  34 1.41  76 1.42
  74  0.740  0.646  0.674-  45 1.41  35 1.41  75 1.42
  75  0.735  0.604  0.663-  39 1.41  36 1.41  74 1.42
  76  0.759  0.146  0.174-  40 1.41  37 1.41  73 1.42
  77  0.235  0.644  0.178-  38 1.41  42 1.41  78 1.42
  78  0.240  0.602  0.166-  41 1.41  48 1.41  77 1.42
  79  0.259  0.101  0.668-  46 1.41  43 1.41  80 1.42
  80  0.264  0.144  0.678-  47 1.41  44 1.41  79 1.42
  81  0.931  0.874  0.919- 122 1.99 117 1.99 127 1.99 119 1.99
  82  0.069  0.874  0.423- 118 1.99 126 1.99 129 1.99 130 1.99
  83  0.568  0.374  0.418- 128 1.99 125 1.99 120 1.99 124 1.99
  84  0.430  0.374  0.921- 123 1.99 131 1.99 121 1.99 132 1.99
  85  0.452  0.135  0.200-  60 1.08
  86  0.915  0.561  0.178-  55 1.08
  87  0.940  0.189  0.661-  56 1.08
  88  0.582  0.061  0.675-  49 1.08
  89  0.562  0.689  0.158-  61 1.08
  90  0.547  0.613  0.140-  52 1.08
  91  0.047  0.635  0.698-  58 1.08
  92  0.071  0.111  0.145-  59 1.08
  93  0.928  0.637  0.196-  51 1.08
  94  0.084  0.186  0.163-  63 1.08
  95  0.059  0.559  0.678-  57 1.08
  96  0.417  0.687  0.666-  54 1.08
  97  0.428  0.611  0.645-  64 1.08
  98  0.571  0.137  0.695-  53 1.08
  99  0.952  0.113  0.643-  50 1.08
 100  0.438  0.059  0.183-  62 1.08
 101  0.549  0.463  0.953-   7 1.08
 102  0.449  0.285  0.386-  12 1.08
 103  0.149  0.455  0.845-  16 1.09
 104  0.336  0.790  0.501-  10 1.09
 105  0.065  0.962  0.958-  11 1.08
 106  0.163  0.291  0.997-  15 1.08
 107  0.664  0.957  0.842-   1 1.09
 108  0.935  0.785  0.384-  13 1.08
 109  0.350  0.954  0.350-  14 1.09
 110  0.835  0.457  0.343-   4 1.09
 111  0.565  0.285  0.883-   5 1.08
 112  0.950  0.963  0.455-   2 1.08
 113  0.850  0.294  0.494-   8 1.09
 114  0.434  0.463  0.456-   9 1.08
 115  0.050  0.785  0.888-   6 1.08
 116  0.650  0.794  0.992-   3 1.09
 117  0.813  0.913  0.076-   1 1.36 118 1.38  81 1.99
 118  0.905  0.915  0.269-   2 1.34 117 1.38  82 1.99
 119  0.805  0.836  0.762-   3 1.36 129 1.38  81 1.99
 120  0.686  0.413  0.576-   4 1.36 123 1.38  83 1.99
 121  0.602  0.333  0.069-   5 1.34 124 1.38  84 1.99
 122  0.095  0.832  0.073-   6 1.34 126 1.38  81 1.99
 123  0.594  0.416  0.768-   7 1.34 120 1.38  84 1.99
 124  0.694  0.336  0.262-   8 1.36 121 1.38  83 1.99
 125  0.396  0.415  0.270-   9 1.34 132 1.38  83 1.99
 126  0.187  0.834  0.267-  10 1.36 122 1.38  82 1.99
 127  0.103  0.914  0.772-  11 1.34 130 1.38  81 1.99
 128  0.404  0.332  0.571-  12 1.34 131 1.38  83 1.99
 129  0.897  0.833  0.570-  13 1.34 119 1.38  82 1.99
 130  0.195  0.911  0.581-  14 1.36 127 1.38  82 1.99
 131  0.312  0.335  0.763-  15 1.36 128 1.38  84 1.99
 132  0.304  0.412  0.077-  16 1.36 125 1.38  84 1.99
 133  0.760  0.020  0.132-  17 1.41  18 1.41  65 1.41
 134  0.739  0.730  0.703-  29 1.41  19 1.41  66 1.41
 135  0.739  0.520  0.633-  23 1.41  20 1.41  67 1.41
 136  0.761  0.230  0.204-  24 1.41  21 1.41  68 1.41
 137  0.240  0.728  0.210-  22 1.41  26 1.41  69 1.41
 138  0.238  0.518  0.135-  25 1.41  32 1.41  70 1.41
 139  0.261  0.017  0.639-  30 1.41  27 1.41  71 1.41
 140  0.260  0.228  0.708-  31 1.41  28 1.41  72 1.41
 141  0.630  0.002  0.486-  17 1.23
 142  0.921  0.036  0.805-  18 1.23
 143  0.898  0.714  0.033-  19 1.23
 144  0.579  0.536  0.303-  20 1.23
 145  0.601  0.214  0.532-  21 1.23
 146  0.370  0.746  0.856-  22 1.23
 147  0.868  0.502  0.988-  23 1.23
 148  0.890  0.248  0.850-  24 1.23
 149  0.109  0.500  0.489-  25 1.23
 150  0.078  0.712  0.537-  26 1.23
 151  0.101  0.034  0.308-  27 1.23
 152  0.420  0.212  0.037-  28 1.23
 153  0.610  0.748  0.347-  29 1.23
 154  0.389  1.000  0.995-  30 1.23
 155  0.131  0.246  0.352-  31 1.23
 156  0.398  0.534  0.807-  32 1.23
 

IMPORTANT INFORMATION: All symmetrisations will be switched off!
NOSYMM: (Re-)initialisation of all symmetry stuff for point group C_1.


----------------------------------------------------------------------------------------

                                     Primitive cell                                     

  volume of cell :    1538.3098

  direct lattice vectors                    reciprocal lattice vectors
     8.116071960  0.004835642 -0.013793715     0.123212683 -0.000084698  0.000188145
     0.017663838 32.756125685  3.178225480    -0.000024923  0.030900453 -0.003831910
    -0.008444106  0.726290267  5.856846341     0.000303708 -0.016768371  0.172820185

  length of vectors
     8.116085122 32.909955927  5.901713134     0.123212856  0.031137150  0.173632045

  position of ions in fractional coordinates (direct lattice)
     0.739534237  0.950821386  0.997105615
     0.887912902  0.953487143  0.312997280
     0.726264837  0.799493304  0.837958237
     0.759365939  0.450710978  0.497644765
     0.625059990  0.295543310  0.024491594
     0.112001210  0.794299098  0.029891706
     0.610749318  0.453491699  0.811941685
     0.772999383  0.299465157  0.338862955
     0.373422168  0.452373866  0.314349733
     0.260534440  0.796957851  0.345681497
     0.125413058  0.952217522  0.817290864
     0.387299574  0.294349141  0.527485978
     0.874544544  0.795503310  0.525156965
     0.273545698  0.948212567  0.504357045
     0.238998012  0.297119598  0.842126280
     0.225554133  0.448542314  0.999735069
     0.692987147  0.029476823  0.333883541
     0.845543553  0.047947711  0.958137196
     0.822787930  0.701876281  0.878992715
     0.653306718  0.547943467  0.457316190
     0.676680083  0.201929795  0.379017131
     0.306908729  0.718416490  0.008402920
     0.805206963  0.529345917  0.834940046
     0.828723749  0.220588131  0.003026196
     0.170159223  0.527313773  0.336078658
     0.153744940  0.699809726  0.383597943
     0.176680869  0.045821898  0.462620938
     0.345566884  0.199910987  0.883043450
     0.671316212  0.720667803  0.501241926
     0.328264815  0.027119891  0.840475119
     0.193517396  0.218390294  0.505594438
     0.322507994  0.546118470  0.960334493
     0.698117858  0.073474123  0.346360252
     0.836689821  0.091955719  0.969873632
     0.812811396  0.657867324  0.867251054
     0.662246995  0.591967810  0.469075872
     0.686502251  0.157946950  0.367217362
     0.301340593  0.674475127  0.994980179
     0.800244271  0.573360862  0.847188925
     0.825025001  0.176525571  0.990910856
     0.174075091  0.571334051  0.348957819
     0.162521844  0.655837759  0.371192728
     0.186482869  0.089829220  0.474126046
     0.336781603  0.155864955  0.871689281
     0.674873952  0.676578226  0.489345846
     0.324566236  0.071215102  0.852058706
     0.198707403  0.174353943  0.493724075
     0.312745602  0.590063101  0.972757566
     0.628168624  0.085558533  0.534651474
     0.901733080  0.122468966  0.792584854
     0.877252102  0.627350062  0.045639282
     0.597832529  0.622537742  0.290804138
     0.621568752  0.127484859  0.544690163
     0.371182187  0.662490166  0.806310306
     0.869881985  0.585395069  0.036203603
     0.894814978  0.164411128  0.802451396
     0.104176822  0.583369606  0.537608056
     0.097283200  0.625280035  0.548107422
     0.122020872  0.120308475  0.295552461
     0.401448940  0.125351654  0.050078176
     0.605518354  0.664511048  0.300105150
     0.393937374  0.083361892  0.041079881
     0.129149344  0.162273020  0.304822596
     0.377676596  0.620598026  0.795615753
     0.786194162  0.976904693  0.143500883
     0.768990274  0.773067206  0.691635741
     0.712454106  0.476842533  0.643457303
     0.730633831  0.273059606  0.192108286
     0.213725687  0.770877834  0.199354575
     0.268229361  0.474931095  0.146463141
     0.230762722  0.974659394  0.650520130
     0.285972787  0.270978991  0.696448085
     0.764197577  0.103615689  0.162920277
     0.740298116  0.646298815  0.673568294
     0.734719522  0.603573772  0.662766275
     0.759012089  0.146330433  0.174112930
     0.235105632  0.644265394  0.177963847
     0.240257780  0.601578972  0.166147779
     0.258916081  0.101435121  0.667734914
     0.264367885  0.144176363  0.678244900
     0.931216011  0.874202838  0.919413083
     0.068683624  0.873542490  0.423269055
     0.567557037  0.374213216  0.418342593
     0.430284424  0.373657858  0.920735789
     0.452056622  0.134785343  0.200457602
     0.915010855  0.561180873  0.177644049
     0.939704154  0.188620568  0.661332403
     0.582151228  0.061386511  0.675041549
     0.561646304  0.688753482  0.157820176
     0.547263878  0.613157643  0.140225293
     0.046538852  0.634654607  0.698257101
     0.071445313  0.110846434  0.145300954
     0.927995139  0.636771226  0.195913047
     0.084012226  0.186453042  0.163197915
     0.058972742  0.559117493  0.678265511
     0.417225455  0.686724618  0.666257948
     0.428198601  0.611205570  0.645459309
     0.570918480  0.136958438  0.694554910
     0.952308170  0.113033695  0.642513910
     0.438027604  0.059163533  0.183433538
     0.548792156  0.463221331  0.953385563
     0.449157404  0.284635304  0.385884079
     0.149140188  0.454501010  0.844672500
     0.336374912  0.790435424  0.501166423
     0.064881224  0.962466463  0.958219732
     0.163284045  0.290652765  0.997014845
     0.663755999  0.957333772  0.841550036
     0.935081666  0.785266507  0.384202939
     0.350184882  0.954075040  0.350260250
     0.835307764  0.457148453  0.342960114
     0.564758106  0.285347298  0.882828513
     0.949701553  0.963139841  0.455242393
     0.849524099  0.293569048  0.493802911
     0.433803321  0.462544878  0.456050510
     0.050128176  0.784638859  0.887698596
     0.649563692  0.793615987  0.992003140
     0.812830786  0.913326288  0.076033372
     0.904654724  0.915497623  0.269360598
     0.805471813  0.836211065  0.761770240
     0.686152238  0.413265078  0.575881040
     0.602155385  0.333262210  0.069409266
     0.095415061  0.832296930  0.073429371
     0.594203332  0.415506025  0.768250066
     0.693604987  0.336217288  0.261811316
     0.395912219  0.414634808  0.269551161
     0.187311473  0.834465113  0.266705815
     0.102963959  0.914488703  0.772366397
     0.403561014  0.332368298  0.570824273
     0.897105484  0.833213090  0.570318035
     0.194538184  0.911477363  0.580892610
     0.311791857  0.334604532  0.763378494
     0.304499803  0.411731106  0.077025178
     0.759764415  0.019745413  0.132356185
     0.738666735  0.730342167  0.703243619
     0.738704011  0.519667356  0.632635261
     0.761150208  0.230313483  0.204261146
     0.240013199  0.728044711  0.210119457
     0.237894669  0.517676934  0.134681051
     0.260870934  0.017400822  0.638562112
     0.260024263  0.228137396  0.707676512
     0.630423761  0.002361079  0.486461189
     0.920571036  0.035571872  0.804916270
     0.898070435  0.713939753  0.033483830
     0.578811636  0.535648784  0.302948916
     0.600939961  0.214078800  0.532401344
     0.369809222  0.745583048  0.856412116
     0.867706632  0.502181785  0.988119202
     0.889796556  0.247827492  0.849759397
     0.108937594  0.500020897  0.488929813
     0.078438838  0.712129825  0.536770419
     0.101411611  0.033747983  0.308139781
     0.420186464  0.212241771  0.037196681
     0.610312330  0.747955322  0.347377981
     0.389180817  0.999857864  0.994569548
     0.130945311  0.245516259  0.352266126
     0.398297109  0.534053347  0.806712940

  ion indices of the primitive-cell ions
   primitive index   ion index
                 1           1
                 2           2
                 3           3
                 4           4
                 5           5
                 6           6
                 7           7
                 8           8
                 9           9
                10          10
                11          11
                12          12
                13          13
                14          14
                15          15
                16          16
                17          17
                18          18
                19          19
                20          20
                21          21
                22          22
                23          23
                24          24
                25          25
                26          26
                27          27
                28          28
                29          29
                30          30
                31          31
                32          32
                33          33
                34          34
                35          35
                36          36
                37          37
                38          38
                39          39
                40          40
                41          41
                42          42
                43          43
                44          44
                45          45
                46          46
                47          47
                48          48
                49          49
                50          50
                51          51
                52          52
                53          53
                54          54
                55          55
                56          56
                57          57
                58          58
                59          59
                60          60
                61          61
                62          62
                63          63
                64          64
                65          65
                66          66
                67          67
                68          68
                69          69
                70          70
                71          71
                72          72
                73          73
                74          74
                75          75
                76          76
                77          77
                78          78
                79          79
                80          80
                81          81
                82          82
                83          83
                84          84
                85          85
                86          86
                87          87
                88          88
                89          89
                90          90
                91          91
                92          92
                93          93
                94          94
                95          95
                96          96
                97          97
                98          98
                99          99
               100         100
               101         101
               102         102
               103         103
               104         104
               105         105
               106         106
               107         107
               108         108
               109         109
               110         110
               111         111
               112         112
               113         113
               114         114
               115         115
               116         116
               117         117
               118         118
               119         119
               120         120
               121         121
               122         122
               123         123
               124         124
               125         125
               126         126
               127         127
               128         128
               129         129
               130         130
               131         131
               132         132
               133         133
               134         134
               135         135
               136         136
               137         137
               138         138
               139         139
               140         140
               141         141
               142         142
               143         143
               144         144
               145         145
               146         146
               147         147
               148         148
               149         149
               150         150
               151         151
               152         152
               153         153
               154         154
               155         155
               156         156

----------------------------------------------------------------------------------------

 
 

Automatic generation of k-mesh.
 generate k-points for:    3    1    4
Space group operators:
 irot       det(A)        alpha          n_x          n_y          n_z        tau_x        tau_y        tau_z
    1     1.000000     0.000001     1.000000     0.000000     0.000000     0.000000     0.000000     0.000000
 
 Subroutine IBZKPT returns following result:
 ===========================================
 
 Found      7 irreducible k-points:
 
 Following reciprocal coordinates:
            Coordinates               Weight
  0.000000  0.000000  0.000000      1.000000
  0.333333 -0.000000 -0.000000      2.000000
 -0.000000  0.000000  0.250000      2.000000
  0.333333 -0.000000  0.250000      2.000000
 -0.333333  0.000000  0.250000      2.000000
 -0.000000  0.000000  0.500000      1.000000
  0.333333 -0.000000  0.500000      2.000000
 
 Following cartesian coordinates:
            Coordinates               Weight
  0.000000  0.000000  0.000000      1.000000
  0.041071 -0.000028  0.000063      2.000000
  0.000076 -0.004192  0.043205      2.000000
  0.041147 -0.004220  0.043268      2.000000
 -0.040995 -0.004164  0.043142      2.000000
  0.000152 -0.008384  0.086410      1.000000
  0.041223 -0.008412  0.086473      2.000000
 


--------------------------------------------------------------------------------------------------------




 Dimension of arrays:
   k-points           NKPTS =      7   k-points in BZ     NKDIM =      7   number of bands    NBANDS=    384
   number of dos      NEDOS =    301   number of ions     NIONS =    156
   non local maximal  LDIM  =      6   non local SUM 2l+1 LMDIM =     18
   total plane-waves  NPLWV = 360000
   max r-space proj   IRMAX =   2440   max aug-charges    IRDMAX=   8535
   dimension x,y,z NGX =    50 NGY =  200 NGZ =   36
   dimension x,y,z NGXF=   100 NGYF=  400 NGZF=   72
   support grid    NGXF=   100 NGYF=  400 NGZF=   72
   ions per type =              80   4  32  24  16
   NGX,Y,Z   is equivalent  to a cutoff of  10.24, 10.10, 10.14 a.u.
   NGXF,Y,Z  is equivalent  to a cutoff of  20.48, 20.21, 20.28 a.u.

 SYSTEM =  flex_MOF                                
 POSCAR =  FeH_8                                   

 Startparameter for this run:
   NWRITE =      2    write-flag & timer
   PREC   = normal    normal or accurate (medium, high low for compatibility)
   ISTART =      0    job   : 0-new  1-cont  2-samecut
   ICHARG =      2    charge: 1-file 2-atom 10-const
   ISPIN  =      2    spin polarized calculation?
   LNONCOLLINEAR =      F non collinear calculations
   LSORBIT =      F    spin-orbit coupling
   INIWAV =      1    electr: 0-lowe 1-rand  2-diag
   LASPH  =      F    aspherical Exc in radial PAW
   METAGGA=      F    non-selfconsistent MetaGGA calc.

 Electronic Relaxation 1
   ENCUT  =  600.0 eV  44.10 Ry    6.64 a.u.  16.21 65.73 11.79*2*pi/ulx,y,z
   ENINI  =  600.0     initial cutoff
   ENAUG  =  644.9 eV  augmentation charge cutoff
   NELM   =    300;   NELMIN=  3; NELMDL= -8     # of ELM steps 
   EDIFF  = 0.1E-05   stopping-criterion for ELM
   LREAL  =      T    real-space projection
   NLSPLINE    = F    spline interpolate recip. space projectors
   LCOMPAT=      F    compatible to vasp.4.4
   GGA_COMPAT  = T    GGA compatible to vasp.4.4-vasp.4.6
   LMAXPAW     = -100 max onsite density
   LMAXMIX     =    2 max onsite mixed and CHGCAR
   VOSKOWN=      0    Vosko Wilk Nusair interpolation
   ROPT   =   -0.00050  -0.00050  -0.00050  -0.00050
   ROPT   =   -0.00050
 Ionic relaxation
   EDIFFG = -.1E-01   stopping-criterion for IOM
   NSW    =   1000    number of steps for IOM
   NBLOCK =      1;   KBLOCK =   1000    inner block; outer block 
   IBRION =      2    ionic relax: 0-MD 1-quasi-New 2-CG
   NFREE  =      1    steps in history (QN), initial steepest desc. (CG)
   ISIF   =      4    stress and relaxation
   IWAVPR =     11    prediction:  0-non 1-charg 2-wave 3-comb
   ISYM   =      0    0-nonsym 1-usesym 2-fastsym
   LCORR  =      T    Harris-Foulkes like correction to forces

   POTIM  = 0.5000    time-step for ionic-motion
   TEIN   =    0.0    initial temperature
   TEBEG  =    0.0;   TEEND  =   0.0 temperature during run
   SMASS  =  -3.00    Nose mass-parameter (am)
   estimated Nose-frequenzy (Omega)   =  0.10E-29 period in steps = 0.13E+47 mass=  -0.151E-26a.u.
   SCALEE = 1.0000    scale energy and forces
   NPACO  =    256;   APACO  = 16.0  distance and # of slots for P.C.
   PSTRESS=    0.0 pullay stress

  Mass of Ions in am
   POMASS =  12.01 55.85  1.00 14.00 16.00
  Ionic Valenz
   ZVAL   =   4.00  8.00  1.00  5.00  6.00
  Atomic Wigner-Seitz radii
   RWIGS  =  -1.00 -1.00 -1.00 -1.00 -1.00
  virtual crystal weights 
   VCA    =   1.00  1.00  1.00  1.00  1.00
   NELECT =     600.0000    total number of electrons
   NUPDOWN=      -1.0000    fix difference up-down

 DOS related values:
   EMIN   =  10.00;   EMAX   =-10.00  energy-range for DOS
   EFERMI =   0.00
   ISMEAR =     0;   SIGMA  =   0.05  broadening in eV -4-tet -1-fermi 0-gaus

 Electronic relaxation 2 (details)
   IALGO  =     38    algorithm
   LDIAG  =      T    sub-space diagonalisation (order eigenvalues)
   LSUBROT=      F    optimize rotation matrix (better conditioning)
   TURBO    =      0    0=normal 1=particle mesh
   IRESTART =      0    0=no restart 2=restart with 2 vectors
   NREBOOT  =      0    no. of reboots
   NMIN     =      0    reboot dimension
   EREF     =   0.00    reference energy to select bands
   IMIX   =      4    mixing-type and parameters
     AMIX     =   0.40;   BMIX     =  1.00
     AMIX_MAG =   1.60;   BMIX_MAG =  1.00
     AMIN     =   0.10
     WC   =   100.;   INIMIX=   1;  MIXPRE=   1;  MAXMIX= -45

 Intra band minimization:
   WEIMIN = 0.0010     energy-eigenvalue tresh-hold
   EBREAK =  0.65E-09  absolut break condition
   DEPER  =   0.30     relativ break condition  

   TIME   =   0.40     timestep for ELM

  volume/ion in A,a.u.               =       9.86        66.55
  Fermi-wavevector in a.u.,A,eV,Ry     =   1.196127  2.260352 19.466126  1.430720
  Thomas-Fermi vector in A             =   2.332075
 
 Write flags
   LWAVE        =      T    write WAVECAR
   LDOWNSAMPLE  =      F    k-point downsampling of WAVECAR
   LCHARG       =      T    write CHGCAR
   LVTOT        =      F    write LOCPOT, total local potential
   LVHAR        =      F    write LOCPOT, Hartree potential only
   LELF         =      F    write electronic localiz. function (ELF)
   LORBIT       =     11    0 simple, 1 ext, 2 COOP (PROOUT), +10 PAW based schemes


 Dipole corrections
   LMONO  =      F    monopole corrections only (constant potential shift)
   LDIPOL =      F    correct potential (dipole corrections)
   IDIPOL =      0    1-x, 2-y, 3-z, 4-all directions 
   EPSILON=  1.0000000 bulk dielectric constant

 Exchange correlation treatment:
   GGA     =    PE    GGA type
   LEXCH   =     8    internal setting for exchange type
   VOSKOWN=      0    Vosko Wilk Nusair interpolation
   LHFCALC =     F    Hartree Fock is set to
   LHFONE  =     F    Hartree Fock one center treatment
   AEXX    =    0.0000 exact exchange contribution

 Linear response parameters
   LEPSILON=     F    determine dielectric tensor
   LRPA    =     F    only Hartree local field effects (RPA)
   LNABLA  =     F    use nabla operator in PAW spheres
   LVEL    =     F    velocity operator in full k-point grid
   LINTERFAST=   F  fast interpolation
   KINTER  =     0    interpolate to denser k-point grid
   CSHIFT  =0.1000    complex shift for real part using Kramers Kronig
   OMEGAMAX=  -1.0    maximum frequency
   DEG_THRESHOLD= 0.2000000E-02 threshold for treating states as degnerate
   RTIME   =   -0.100 relaxation time in fs
  (WPLASMAI=    0.000 imaginary part of plasma frequency in eV, 0.658/RTIME)
   DFIELD  = 0.0000000 0.0000000 0.0000000 field for delta impulse in time
 
 Orbital magnetization related:
   ORBITALMAG=     F  switch on orbital magnetization
   LCHIMAG   =     F  perturbation theory with respect to B field
   DQ        =  0.001000  dq finite difference perturbation B field
   LLRAUG    =     F  two centre corrections for induced B field



--------------------------------------------------------------------------------------------------------


 conjugate gradient relaxation of ions
 charge density and potential will be updated during run
 spin polarized calculation
 Variant of blocked Davidson
 Davidson routine will perform the subspace rotation
 perform sub-space diagonalisation
    after iterative eigenvector-optimisation
 modified Broyden-mixing scheme, WC =      100.0
 initial mixing is a Kerker type mixing with AMIX =  0.4000 and BMIX =      1.0000
 Hartree-type preconditioning will be used
 using additional bands           84
 real space projection scheme for non local part
 use partial core corrections
 calculate Harris-corrections to forces 
   (improved forces if not selfconsistent)
 use gradient corrections 
 use of overlap-Matrix (Vanderbilt PP)
 Gauss-broadening in eV      SIGMA  =   0.05


--------------------------------------------------------------------------------------------------------


  energy-cutoff  :      600.00
  volume of cell :     1538.31
      direct lattice vectors                 reciprocal lattice vectors
     8.116071960  0.004835642 -0.013793715     0.123212683 -0.000084698  0.000188145
     0.017663838 32.756125685  3.178225480    -0.000024923  0.030900453 -0.003831910
    -0.008444106  0.726290267  5.856846341     0.000303708 -0.016768371  0.172820185

  length of vectors
     8.116085122 32.909955927  5.901713134     0.123212856  0.031137150  0.173632045


 
 k-points in units of 2pi/SCALE and weight: read from INCAR                         
   0.00000000  0.00000000  0.00000000       0.083
   0.04107089 -0.00002823  0.00006271       0.167
   0.00007593 -0.00419209  0.04320505       0.167
   0.04114682 -0.00422033  0.04326776       0.167
  -0.04099497 -0.00416386  0.04314233       0.167
   0.00015185 -0.00838419  0.08641009       0.083
   0.04122275 -0.00841242  0.08647281       0.167
 
 k-points in reciprocal lattice and weights: read from INCAR                         
   0.00000000  0.00000000  0.00000000       0.083
   0.33333333 -0.00000000 -0.00000000       0.167
  -0.00000000  0.00000000  0.25000000       0.167
   0.33333333 -0.00000000  0.25000000       0.167
  -0.33333333  0.00000000  0.25000000       0.167
  -0.00000000  0.00000000  0.50000000       0.083
   0.33333333 -0.00000000  0.50000000       0.167
 
 position of ions in fractional coordinates (direct lattice) 
   0.73953424  0.95082139  0.99710562
   0.88791290  0.95348714  0.31299728
   0.72626484  0.79949330  0.83795824
   0.75936594  0.45071098  0.49764476
   0.62505999  0.29554331  0.02449159
   0.11200121  0.79429910  0.02989171
   0.61074932  0.45349170  0.81194168
   0.77299938  0.29946516  0.33886296
   0.37342217  0.45237387  0.31434973
   0.26053444  0.79695785  0.34568150
   0.12541306  0.95221752  0.81729086
   0.38729957  0.29434914  0.52748598
   0.87454454  0.79550331  0.52515696
   0.27354570  0.94821257  0.50435705
   0.23899801  0.29711960  0.84212628
   0.22555413  0.44854231  0.99973507
   0.69298715  0.02947682  0.33388354
   0.84554355  0.04794771  0.95813720
   0.82278793  0.70187628  0.87899272
   0.65330672  0.54794347  0.45731619
   0.67668008  0.20192980  0.37901713
   0.30690873  0.71841649  0.00840292
   0.80520696  0.52934592  0.83494005
   0.82872375  0.22058813  0.00302620
   0.17015922  0.52731377  0.33607866
   0.15374494  0.69980973  0.38359794
   0.17668087  0.04582190  0.46262094
   0.34556688  0.19991099  0.88304345
   0.67131621  0.72066780  0.50124193
   0.32826481  0.02711989  0.84047512
   0.19351740  0.21839029  0.50559444
   0.32250799  0.54611847  0.96033449
   0.69811786  0.07347412  0.34636025
   0.83668982  0.09195572  0.96987363
   0.81281140  0.65786732  0.86725105
   0.66224700  0.59196781  0.46907587
   0.68650225  0.15794695  0.36721736
   0.30134059  0.67447513  0.99498018
   0.80024427  0.57336086  0.84718893
   0.82502500  0.17652557  0.99091086
   0.17407509  0.57133405  0.34895782
   0.16252184  0.65583776  0.37119273
   0.18648287  0.08982922  0.47412605
   0.33678160  0.15586496  0.87168928
   0.67487395  0.67657823  0.48934585
   0.32456624  0.07121510  0.85205871
   0.19870740  0.17435394  0.49372408
   0.31274560  0.59006310  0.97275757
   0.62816862  0.08555853  0.53465147
   0.90173308  0.12246897  0.79258485
   0.87725210  0.62735006  0.04563928
   0.59783253  0.62253774  0.29080414
   0.62156875  0.12748486  0.54469016
   0.37118219  0.66249017  0.80631031
   0.86988199  0.58539507  0.03620360
   0.89481498  0.16441113  0.80245140
   0.10417682  0.58336961  0.53760806
   0.09728320  0.62528004  0.54810742
   0.12202087  0.12030848  0.29555246
   0.40144894  0.12535165  0.05007818
   0.60551835  0.66451105  0.30010515
   0.39393737  0.08336189  0.04107988
   0.12914934  0.16227302  0.30482260
   0.37767660  0.62059803  0.79561575
   0.78619416  0.97690469  0.14350088
   0.76899027  0.77306721  0.69163574
   0.71245411  0.47684253  0.64345730
   0.73063383  0.27305961  0.19210829
   0.21372569  0.77087783  0.19935458
   0.26822936  0.47493110  0.14646314
   0.23076272  0.97465939  0.65052013
   0.28597279  0.27097899  0.69644808
   0.76419758  0.10361569  0.16292028
   0.74029812  0.64629881  0.67356829
   0.73471952  0.60357377  0.66276628
   0.75901209  0.14633043  0.17411293
   0.23510563  0.64426539  0.17796385
   0.24025778  0.60157897  0.16614778
   0.25891608  0.10143512  0.66773491
   0.26436789  0.14417636  0.67824490
   0.93121601  0.87420284  0.91941308
   0.06868362  0.87354249  0.42326906
   0.56755704  0.37421322  0.41834259
   0.43028442  0.37365786  0.92073579
   0.45205662  0.13478534  0.20045760
   0.91501085  0.56118087  0.17764405
   0.93970415  0.18862057  0.66133240
   0.58215123  0.06138651  0.67504155
   0.56164630  0.68875348  0.15782018
   0.54726388  0.61315764  0.14022529
   0.04653885  0.63465461  0.69825710
   0.07144531  0.11084643  0.14530095
   0.92799514  0.63677123  0.19591305
   0.08401223  0.18645304  0.16319791
   0.05897274  0.55911749  0.67826551
   0.41722545  0.68672462  0.66625795
   0.42819860  0.61120557  0.64545931
   0.57091848  0.13695844  0.69455491
   0.95230817  0.11303369  0.64251391
   0.43802760  0.05916353  0.18343354
   0.54879216  0.46322133  0.95338556
   0.44915740  0.28463530  0.38588408
   0.14914019  0.45450101  0.84467250
   0.33637491  0.79043542  0.50116642
   0.06488122  0.96246646  0.95821973
   0.16328404  0.29065277  0.99701484
   0.66375600  0.95733377  0.84155004
   0.93508167  0.78526651  0.38420294
   0.35018488  0.95407504  0.35026025
   0.83530776  0.45714845  0.34296011
   0.56475811  0.28534730  0.88282851
   0.94970155  0.96313984  0.45524239
   0.84952410  0.29356905  0.49380291
   0.43380332  0.46254488  0.45605051
   0.05012818  0.78463886  0.88769860
   0.64956369  0.79361599  0.99200314
   0.81283079  0.91332629  0.07603337
   0.90465472  0.91549762  0.26936060
   0.80547181  0.83621107  0.76177024
   0.68615224  0.41326508  0.57588104
   0.60215539  0.33326221  0.06940927
   0.09541506  0.83229693  0.07342937
   0.59420333  0.41550602  0.76825007
   0.69360499  0.33621729  0.26181132
   0.39591222  0.41463481  0.26955116
   0.18731147  0.83446511  0.26670582
   0.10296396  0.91448870  0.77236640
   0.40356101  0.33236830  0.57082427
   0.89710548  0.83321309  0.57031803
   0.19453818  0.91147736  0.58089261
   0.31179186  0.33460453  0.76337849
   0.30449980  0.41173111  0.07702518
   0.75976441  0.01974541  0.13235618
   0.73866674  0.73034217  0.70324362
   0.73870401  0.51966736  0.63263526
   0.76115021  0.23031348  0.20426115
   0.24001320  0.72804471  0.21011946
   0.23789467  0.51767693  0.13468105
   0.26087093  0.01740082  0.63856211
   0.26002426  0.22813740  0.70767651
   0.63042376  0.00236108  0.48646119
   0.92057104  0.03557187  0.80491627
   0.89807043  0.71393975  0.03348383
   0.57881164  0.53564878  0.30294892
   0.60093996  0.21407880  0.53240134
   0.36980922  0.74558305  0.85641212
   0.86770663  0.50218179  0.98811920
   0.88979656  0.24782749  0.84975940
   0.10893759  0.50002090  0.48892981
   0.07843884  0.71212983  0.53677042
   0.10141161  0.03374798  0.30813978
   0.42018646  0.21224177  0.03719668
   0.61031233  0.74795532  0.34737798
   0.38918082  0.99985786  0.99456955
   0.13094531  0.24551626  0.35226613
   0.39829711  0.53405335  0.80671294
 
 position of ions in cartesian coordinates  (Angst):
   6.01048857 31.87298904  8.85161820
   7.22056427 31.46416521  4.85132649
   5.90146399 26.80041600  7.43874473
   6.16682773 15.12865201  4.33661556
   5.07804548  9.70166437  1.07412488
   0.92278784 26.04041275  2.69798785
   4.95803970 15.44728981  6.18829206
   6.27614693 10.05916912  2.92577352
   3.03605744 15.04813009  3.27369335
   2.12567462 26.35757650  4.55392142
   1.02777993 31.78515368  7.81137908
   3.14409640 10.02671823  4.01956996
   7.10748361 26.44325179  5.59198932
   2.23260680 31.42740239  5.96380184
   1.93786233 10.34527072  5.87322063
   1.83009468 15.41969695  7.27775206
   5.62203488  1.21139391  2.03962972
   6.85524865  2.27055572  5.75238778
   6.68278157 23.63313024  7.36749705
   5.30810149 18.28380854  4.41090702
   5.49235064  6.89298638  2.85228958
   2.50351237 23.54012790  2.32827079
   6.53741761 17.94962392  6.56138944
   6.72985246  7.23181784  0.70737160
   1.38750100 17.51766970  3.64193600
   1.25692718 23.20240225  4.46870660
   1.43085762  1.83779931  2.85269499
   2.80072038  7.19132631  5.80244534
   5.45694791 23.97357851  5.21688177
   2.65760284  1.50035882  5.00419876
   1.57018943  7.52176401  3.65261321
   2.61903547 18.58776636  7.35577061
   5.66434790  2.66166153  2.25246647
   6.78406937  3.72056882  5.96111578
   6.60113308 22.18299121  7.15899517
   5.38133977 19.73445962  4.61957764
   5.57139079  5.44375622  2.64325727
   2.44921404 22.81729361  7.96692345
   6.49781409 19.40025522  6.77308712
   6.69071304  6.50597224  6.35327053
   1.41995128 18.96897640  3.85721962
   1.32748920 21.75308364  4.25617727
   1.51109154  3.28771211  3.05980862
   2.72873626  5.74026005  5.59607868
   5.48514444 22.52075198  5.00703257
   2.62826598  2.95314225  5.21223759
   1.61163428  6.07070754  3.44306128
   2.54047453 20.03619779  7.56833125
   5.09525839  3.19391583  3.39463106
   7.31400117  4.59161598  5.01884344
   7.13053722 20.58694694  2.24906165
   4.86059265 20.60602365  3.67351413
   5.04234917  4.57451892  3.58676848
   3.01743489 22.28802137  6.82285871
   7.07005941 19.20577523  2.06055756
   7.25851090  5.97261123  5.21002734
   0.85127151 19.49989140  5.00133093
   0.79597402 20.88030694  5.19611999
   0.98995961  4.15608645  2.11168969
   3.25997981  4.14434707  0.68615853
   4.92363423 21.98769892  3.86128335
   3.19834968  2.76235346  0.50010758
   1.04847778  5.53744965  2.29925790
   3.06949431 20.90806124  6.62699011
   6.39685254 32.10763794  3.93444147
   6.24899549 25.82873344  6.49717892
   5.78531824 16.09029591  5.27431625
   5.93307784  9.08743423  1.98291555
   1.74654635 25.39679401  3.61466462
   2.18412115 15.66457446  2.36355034
   1.88461002 32.39964794  6.90450069
   2.31988137  9.38342821  4.93627712
   6.20273706  3.51607132  1.27297193
   6.01404121 21.66303111  5.98885790
   5.96810148 20.25565187  5.78987926
   6.16131126  4.92334490  1.47435419
   1.91801168 21.23402850  3.08668461
   1.95917266 19.82722972  2.88174158
   2.09753486  3.80884296  4.22963306
   2.14244832  5.21654013  4.42695454
   7.56549432 29.30776184  8.15042996
   0.56929722 28.92161592  5.25438941
   4.60941127 12.56435779  3.63167355
   3.49104479 12.91038592  6.57424174
   3.66961222  4.56282201  1.59619205
   7.43470651 18.51555701  2.81137185
   7.62445394  6.66334240  4.45983895
   4.72016545  2.50387546  4.14068477
   4.56919520 22.67823479  3.10559520
   4.45127966 20.18915946  2.76248244
   0.38302695 21.29618844  6.10601805
   0.58058633  3.73677588  1.20231483
   7.54126884 21.00493551  3.15843465
   0.68376469  6.22641459  1.54725608
   0.48277583 18.80742568  5.74868488
   3.39273605 22.98035212  6.07898102
   3.48063657 20.49158789  5.71699866
   4.63016979  4.99343704  4.49531110
   7.72557279  4.17380253  4.10921594
   3.55455967  2.07331225  1.25633507
   4.45416841 15.86842457  7.04848470
   3.64716312  9.60598560  3.15850338
   1.21132823 15.50189081  6.38956654
   2.73977322 26.25722098  5.44279688
   0.53549023 32.22293183  8.67018622
   1.32194020 10.24557028  6.76087048
   5.39689550 31.97296463  7.96229617
   7.59981666 26.00585299  4.73307335
   2.85602069 31.50788589  5.07885571
   6.78459692 15.22754002  3.45006355
   4.58120306  9.99079267  6.06969888
   7.72101477 31.88396021  5.71426041
   6.89581455  9.97893687  3.81343831
   3.52509835 15.48450092  4.13510592
   0.41320780 26.34669832  7.69218203
   5.27754739 26.71940831  8.32334062
   6.61248397 29.97618355  3.33686070
   7.35613953 30.18816377  4.47478296
   6.54560542 27.94819603  7.10812811
   5.57129799 13.95853761  4.67683178
   4.89243703 10.96970193  1.45739589
   0.78847702 27.31661529  3.07397572
   4.82344925 14.17121347  5.81189815
   5.63307611 11.20668076  2.59239561
   3.21829998 13.77951674  2.89106154
   1.53272116 27.52845572  4.21158954
   0.84529434 30.51656699  7.42866235
   3.27638103 11.30363335  4.39400484
   7.29087458 27.71138722  5.97602975
   1.59008097 30.27930442  6.29639593
   2.52998950 11.51629020  5.53013842
   2.47796466 13.54413094  1.75549874
   6.16553381  0.74658619  0.82746524
   6.00203476 24.43751075  6.42979294
   5.99921219 17.48533816  5.34667807
   6.17989328  7.69621093  1.91781524
   1.95905018 24.00169238  3.54121695
   1.93877715 17.05605863  2.43081879
   2.11216256  1.03502645  3.79166553
   2.10842972  7.98813316  4.86623797
   5.11249858  0.43370034  2.84793659
   7.46525231  1.75425110  4.81462825
   7.30113245 23.41456202  2.45278344
   4.70458037 17.76860667  3.46875390
   4.87655777  7.40197591  3.79029436
   3.00733648 25.04620408  7.38040417
   7.04289614 17.17138695  7.37134038
   7.21885501  8.73934320  5.75228827
   0.88884906 16.73437909  4.45126329
   0.64466166 23.71684450  5.40600906
   0.82105809  1.32974249  1.91058720
   3.41369849  6.98126558  0.88661152
   4.96361725 24.75536704  4.40329164
   3.16788260 33.47569798  8.99744651
   1.06412376  8.29864212  2.84166838
   3.23522946 18.08135235  6.41664169
 


--------------------------------------------------------------------------------------------------------


 k-point  1 :   0.0000 0.0000 0.0000  plane waves:   51293
 k-point  2 :   0.3333-0.0000-0.0000  plane waves:   51349
 k-point  3 :  -0.0000 0.0000 0.2500  plane waves:   51337
 k-point  4 :   0.3333-0.0000 0.2500  plane waves:   51334
 k-point  5 :  -0.3333 0.0000 0.2500  plane waves:   51336
 k-point  6 :  -0.0000 0.0000 0.5000  plane waves:   51392
 k-point  7 :   0.3333-0.0000 0.5000  plane waves:   51334

 maximum and minimum number of plane-waves per node :     12881    12797

 maximum number of plane-waves:     51392
 maximum index in each direction: 
   IXMAX=   16   IYMAX=   65   IZMAX=   11
   IXMIN=  -16   IYMIN=  -65   IZMIN=  -12


 real space projection operators:
  total allocation   :      12009.52 KBytes
  max/ min on nodes  :       3084.87       2920.57


 parallel 3D FFT for wavefunctions:
    minimum data exchange during FFTs selected (reduces bandwidth)
 parallel 3D FFT for charge:
    minimum data exchange during FFTs selected (reduces bandwidth)


 total amount of memory used by VASP MPI-rank0    87838. kBytes
=======================================================================

   base      :      30000. kBytes
   nonlr-proj:       6668. kBytes
   fftplans  :       3883. kBytes
   grid      :      10636. kBytes
   one-center:       1213. kBytes
   wavefun   :      35438. kBytes
 
     INWAV:  cpu time    0.0002: real time    0.0001
 Broyden mixing: mesh for mixing (old mesh)
   NGX = 33   NGY =131   NGZ = 23
  (NGX  =100   NGY  =400   NGZ  = 72)
  gives a total of  99429 points

 initial charge density was supplied:
 charge density of overlapping atoms calculated
 number of electron     600.0000000 magnetization      -0.0000000
 keeping initial charge density in first step


--------------------------------------------------------------------------------------------------------


 Maximum index for non-local projection operator          690
 Maximum index for augmentation-charges          337 (set IRDMAX)


--------------------------------------------------------------------------------------------------------


 First call to EWALD:  gamma=   0.154
 Maximum number of real-space cells 4x 1x 5
 Maximum number of reciprocal cells 2x 7x 2

    FEWALD:  cpu time    0.0153: real time    0.0153


--------------------------------------- Iteration      1(   1)  ---------------------------------------


    POTLOK:  cpu time    0.2009: real time    0.2557
    SETDIJ:  cpu time    0.0633: real time    0.0634
     EDDAV:  cpu time   21.8200: real time   21.9927
       DOS:  cpu time    0.0092: real time    0.0097
    --------------------------------------------
      LOOP:  cpu time   22.0935: real time   22.3216

 eigenvalue-minimisations  : 10752
 total energy-change (2. order) : 0.4526613E+04  (-0.3189394E+05)
 number of electron     600.0000000 magnetization      -0.0000000
 augmentation part      600.0000000 magnetization      -0.0000000

 Free energy of the ion-electron system (eV)
  ---------------------------------------------------
  alpha Z        PSCENC =      1152.24635946
  Ewald energy   TEWEN  =    -11115.78507420
  -Hartree energ DENC   =    -15647.15647652
  -exchange      EXHF   =         0.00000000
  -V(xc)+E(xc)   XCENC  =      2082.09949296
  PAW double counting   =     21422.65208726   -21556.96843230
  entropy T*S    EENTRO =        -0.02657669
  eigenvalues    EBANDS =       373.94760933
  atomic energy  EATOM  =     27815.60422923
  Solvation  Ediel_sol  =         0.00000000
  ---------------------------------------------------
  free energy    TOTEN  =      4526.61321851 eV

  energy without entropy =     4526.63979520  energy(sigma->0) =     4526.62650686


--------------------------------------------------------------------------------------------------------




--------------------------------------- Iteration      1(   2)  ---------------------------------------


     EDDAV:  cpu time   25.0045: real time   25.0393
       DOS:  cpu time    0.0074: real time    0.0074
    --------------------------------------------
      LOOP:  cpu time   25.0120: real time   25.0468

 eigenvalue-minimisations  : 12896
 total energy-change (2. order) :-0.5280192E+04  (-0.5062391E+04)
 number of electron     600.0000000 magnetization      -0.0000000
 augmentation part      600.0000000 magnetization      -0.0000000

 Free energy of the ion-electron system (eV)
  ---------------------------------------------------
  alpha Z        PSCENC =      1152.24635946
  Ewald energy   TEWEN  =    -11115.78507420
  -Hartree energ DENC   =    -15647.15647652
  -exchange      EXHF   =         0.00000000
  -V(xc)+E(xc)   XCENC  =      2082.09949296
  PAW double counting   =     21422.65208726   -21556.96843230
  entropy T*S    EENTRO =        -0.03258455
  eigenvalues    EBANDS =     -4906.23850102
  atomic energy  EATOM  =     27815.60422923
  Solvation  Ediel_sol  =         0.00000000
  ---------------------------------------------------
  free energy    TOTEN  =      -753.57889969 eV

  energy without entropy =     -753.54631515  energy(sigma->0) =     -753.56260742


--------------------------------------------------------------------------------------------------------




--------------------------------------- Iteration      1(   3)  ---------------------------------------


     EDDAV:  cpu time   25.7593: real time   25.7876
       DOS:  cpu time    0.0073: real time    0.0073
    --------------------------------------------
      LOOP:  cpu time   25.7667: real time   25.7950

 eigenvalue-minimisations  : 12992
 total energy-change (2. order) :-0.5152975E+03  (-0.5039741E+03)
 number of electron     600.0000000 magnetization      -0.0000000
 augmentation part      600.0000000 magnetization      -0.0000000

 Free energy of the ion-electron system (eV)
  ---------------------------------------------------
  alpha Z        PSCENC =      1152.24635946
  Ewald energy   TEWEN  =    -11115.78507420
  -Hartree energ DENC   =    -15647.15647652
  -exchange      EXHF   =         0.00000000
  -V(xc)+E(xc)   XCENC  =      2082.09949296
  PAW double counting   =     21422.65208726   -21556.96843230
  entropy T*S    EENTRO =        -0.03229121
  eigenvalues    EBANDS =     -5421.53628110
  atomic energy  EATOM  =     27815.60422923
  Solvation  Ediel_sol  =         0.00000000
  ---------------------------------------------------
  free energy    TOTEN  =     -1268.87638643 eV

  energy without entropy =    -1268.84409522  energy(sigma->0) =    -1268.86024083


--------------------------------------------------------------------------------------------------------




--------------------------------------- Iteration      1(   4)  ---------------------------------------


     EDDAV:  cpu time   29.1143: real time   29.1454
       DOS:  cpu time    0.0071: real time    0.0071
    --------------------------------------------
      LOOP:  cpu time   29.1215: real time   29.1525

 eigenvalue-minimisations  : 15040
 total energy-change (2. order) :-0.2229846E+02  (-0.2211341E+02)
 number of electron     600.0000000 magnetization      -0.0000000
 augmentation part      600.0000000 magnetization      -0.0000000

 Free energy of the ion-electron system (eV)
  ---------------------------------------------------
  alpha Z        PSCENC =      1152.24635946
  Ewald energy   TEWEN  =    -11115.78507420
  -Hartree energ DENC   =    -15647.15647652
  -exchange      EXHF   =         0.00000000
  -V(xc)+E(xc)   XCENC  =      2082.09949296
  PAW double counting   =     21422.65208726   -21556.96843230
  entropy T*S    EENTRO =        -0.02940465
  eigenvalues    EBANDS =     -5443.83762665
  atomic energy  EATOM  =     27815.60422923
  Solvation  Ediel_sol  =         0.00000000
  ---------------------------------------------------
  free energy    TOTEN  =     -1291.17484543 eV

  energy without entropy =    -1291.14544078  energy(sigma->0) =    -1291.16014311


--------------------------------------------------------------------------------------------------------




--------------------------------------- Iteration      1(   5)  ---------------------------------------


     EDDAV:  cpu time   26.9236: real time   26.9520
       DOS:  cpu time    0.0084: real time    0.0084
    --------------------------------------------
      LOOP:  cpu time   26.9320: real time   26.9605

 eigenvalue-minimisations  : 13568
 total energy-change (2. order) :-0.5613977E+00  (-0.5600470E+00)
 number of electron     600.0000000 magnetization      -0.0000000
 augmentation part      600.0000000 magnetization      -0.0000000

 Free energy of the ion-electron system (eV)
  ---------------------------------------------------
  alpha Z        PSCENC =      1152.24635946
  Ewald energy   TEWEN  =    -11115.78507420
  -Hartree energ DENC   =    -15647.15647652
  -exchange      EXHF   =         0.00000000
  -V(xc)+E(xc)   XCENC  =      2082.09949296
  PAW double counting   =     21422.65208726   -21556.96843230
  entropy T*S    EENTRO =        -0.02969746
  eigenvalues    EBANDS =     -5444.39873158
  atomic energy  EATOM  =     27815.60422923
  Solvation  Ediel_sol  =         0.00000000
  ---------------------------------------------------
  free energy    TOTEN  =     -1291.73624317 eV

  energy without entropy =    -1291.70654571  energy(sigma->0) =    -1291.72139444


--------------------------------------------------------------------------------------------------------




--------------------------------------- Iteration      1(   6)  ---------------------------------------


     EDDAV:  cpu time   32.7704: real time   32.8031
       DOS:  cpu time    0.0070: real time    0.0069
    --------------------------------------------
      LOOP:  cpu time   32.7774: real time   32.8100

 eigenvalue-minimisations  : 16640
 total energy-change (2. order) :-0.3750107E-01  (-0.3748745E-01)
 number of electron     600.0000000 magnetization      -0.0000000
 augmentation part      600.0000000 magnetization      -0.0000000

 Free energy of the ion-electron system (eV)
  ---------------------------------------------------
  alpha Z        PSCENC =      1152.24635946
  Ewald energy   TEWEN  =    -11115.78507420
  -Hartree energ DENC   =    -15647.15647652
  -exchange      EXHF   =         0.00000000
  -V(xc)+E(xc)   XCENC  =      2082.09949296
  PAW double counting   =     21422.65208726   -21556.96843230
  entropy T*S    EENTRO =        -0.02969233
  eigenvalues    EBANDS =     -5444.43623779
  atomic energy  EATOM  =     27815.60422923
  Solvation  Ediel_sol  =         0.00000000
  ---------------------------------------------------
  free energy    TOTEN  =     -1291.77374425 eV

  energy without entropy =    -1291.74405192  energy(sigma->0) =    -1291.75889808


--------------------------------------------------------------------------------------------------------




--------------------------------------- Iteration      1(   7)  ---------------------------------------


     EDDAV:  cpu time   26.2116: real time   26.2380
       DOS:  cpu time    0.0074: real time    0.0074
    --------------------------------------------
      LOOP:  cpu time   26.2189: real time   26.2453

 eigenvalue-minimisations  : 13664
 total energy-change (2. order) :-0.5259908E-03  (-0.5257886E-03)
 number of electron     600.0000000 magnetization      -0.0000000
 augmentation part      600.0000000 magnetization      -0.0000000

 Free energy of the ion-electron system (eV)
  ---------------------------------------------------
  alpha Z        PSCENC =      1152.24635946
  Ewald energy   TEWEN  =    -11115.78507420
  -Hartree energ DENC   =    -15647.15647652
  -exchange      EXHF   =         0.00000000
  -V(xc)+E(xc)   XCENC  =      2082.09949296
  PAW double counting   =     21422.65208726   -21556.96843230
  entropy T*S    EENTRO =        -0.02969174
  eigenvalues    EBANDS =     -5444.43676438
  atomic energy  EATOM  =     27815.60422923
  Solvation  Ediel_sol  =         0.00000000
  ---------------------------------------------------
  free energy    TOTEN  =     -1291.77427024 eV

  energy without entropy =    -1291.74457850  energy(sigma->0) =    -1291.75942437


--------------------------------------------------------------------------------------------------------




--------------------------------------- Iteration      1(   8)  ---------------------------------------


     EDDAV:  cpu time   31.3450: real time   31.3835
       DOS:  cpu time    0.0076: real time    0.0076
    CHARGE:  cpu time    0.8093: real time    0.8111
    MIXING:  cpu time    0.0092: real time    0.0116
    --------------------------------------------
      LOOP:  cpu time   32.1711: real time   32.2138

 eigenvalue-minimisations  : 16608
 total energy-change (2. order) :-0.1788012E-04  (-0.1787831E-04)
 number of electron     599.9999927 magnetization       0.0000353
 augmentation part       32.2419387 magnetization      -0.0002116

 Broyden mixing:
  rms(total) = 0.97050E+01    rms(broyden)= 0.97044E+01
  rms(prec ) = 0.10363E+02
  weight for this iteration     100.00

 Free energy of the ion-electron system (eV)
  ---------------------------------------------------
  alpha Z        PSCENC =      1152.24635946
  Ewald energy   TEWEN  =    -11115.78507420
  -Hartree energ DENC   =    -15647.15647652
  -exchange      EXHF   =         0.00000000
  -V(xc)+E(xc)   XCENC  =      2082.09949296
  PAW double counting   =     21422.65208726   -21556.96843230
  entropy T*S    EENTRO =        -0.02969172
  eigenvalues    EBANDS =     -5444.43678227
  atomic energy  EATOM  =     27815.60422923
  Solvation  Ediel_sol  =         0.00000000
  ---------------------------------------------------
  free energy    TOTEN  =     -1291.77428812 eV

  energy without entropy =    -1291.74459640  energy(sigma->0) =    -1291.75944226


--------------------------------------------------------------------------------------------------------




--------------------------------------- Iteration      1(   9)  ---------------------------------------


    POTLOK:  cpu time    0.1500: real time    0.1500
[...]
      6.78460     15.22754      3.45006         0.004370     -0.000066     -0.001262
      4.58120      9.99079      6.06970        -0.003265     -0.002793      0.002323
      7.72101     31.88396      5.71426         0.001522      0.003948     -0.002345
      6.89581      9.97894      3.81344         0.001917      0.000373      0.000193
      3.52510     15.48450      4.13511         0.001720      0.001810     -0.003310
      0.41321     26.34670      7.69218         0.000411     -0.001961      0.006417
      5.27755     26.71941      8.32334        -0.001677      0.002345     -0.000307
      6.61248     29.97618      3.33686        -0.001755      0.003889     -0.002090
      7.35614     30.18816      4.47478        -0.003399     -0.003746      0.001065
      6.54561     27.94820      7.10813         0.000339     -0.002548      0.001701
      5.57130     13.95854      4.67683        -0.000175     -0.000575     -0.001733
      4.89244     10.96970      1.45740         0.000724      0.001354      0.000064
      0.78848     27.31662      3.07398        -0.000238      0.003254     -0.000027
      4.82345     14.17121      5.81190         0.002287     -0.002020      0.000114
      5.63308     11.20668      2.59240        -0.000982     -0.000574      0.001584
      3.21830     13.77952      2.89106        -0.002557     -0.002289      0.000654
      1.53272     27.52846      4.21159         0.002082     -0.005704      0.000556
      0.84529     30.51657      7.42866         0.000649     -0.001950      0.000847
      3.27638     11.30363      4.39400        -0.000188      0.004892     -0.000955
      7.29087     27.71139      5.97603         0.000160      0.002502      0.000144
      1.59008     30.27930      6.29640         0.000661      0.004303     -0.001184
      2.52999     11.51629      5.53014         0.000512     -0.003299      0.000873
      2.47796     13.54413      1.75550        -0.001351      0.001344     -0.001667
      6.16553      0.74659      0.82747        -0.002548      0.003012      0.000910
      6.00203     24.43751      6.42979         0.001952     -0.003933     -0.002360
      5.99921     17.48534      5.34668         0.002315     -0.001416      0.004022
      6.17989      7.69621      1.91782        -0.003231     -0.002056     -0.002032
      1.95905     24.00169      3.54122         0.004295     -0.001755     -0.001385
      1.93878     17.05606      2.43082         0.000065      0.003810     -0.000217
      2.11216      1.03503      3.79167         0.001176      0.002531      0.000868
      2.10843      7.98813      4.86624        -0.003327     -0.004823      0.000652
      5.11250      0.43370      2.84794         0.002415     -0.003421     -0.000583
      7.46525      1.75425      4.81463         0.002105     -0.002686      0.002654
      7.30113     23.41456      2.45278         0.004641     -0.000057     -0.003506
      4.70458     17.76861      3.46875        -0.002760     -0.001800      0.001358
      4.87656      7.40198      3.79029        -0.000387     -0.001378     -0.004835
      3.00734     25.04620      7.38040        -0.003209      0.001082     -0.000834
      7.04290     17.17139      7.37134        -0.000095     -0.004580      0.001407
      7.21886      8.73934      5.75229        -0.002202      0.003282     -0.003821
      0.88885     16.73438      4.45126        -0.001535     -0.001557      0.001608
      0.64466     23.71684      5.40601        -0.001352      0.002320     -0.001882
      0.82106      1.32974      1.91059        -0.001738     -0.004050      0.003228
      3.41370      6.98127      0.88661         0.000191      0.003037      0.000843
      4.96362     24.75537      4.40329         0.004435      0.000828     -0.002354
      3.16788     33.47570      8.99745        -0.002771     -0.004281      0.000850
      1.06412      8.29864      2.84167         0.002737     -0.000275     -0.002641
      3.23523     18.08135      6.41664         0.003366     -0.005564      0.002130
 -----------------------------------------------------------------------------------
    total drift:                               -0.006114     -0.024025      0.006883


--------------------------------------------------------------------------------------------------------



  FREE ENERGIE OF THE ION-ELECTRON SYSTEM (eV)
  ---------------------------------------------------
  free  energy   TOTEN  =     -1184.70341526 eV

  energy  without entropy=    -1184.66910046  energy(sigma->0) =    -1184.68625786
 


--------------------------------------------------------------------------------------------------------


    POTLOK:  cpu time    0.2544: real time    0.2544


--------------------------------------------------------------------------------------------------------




--------------------------------------------------------------------------------------------------------


  
 reached required accuracy - stopping structural energy minimisation
 writing wavefunctions
     LOOP+:  cpu time 2660.4956: real time 2679.7423
    4ORBIT:  cpu time    0.0000: real time    0.0000
 


 total charge     
 
# of ion       s       p       d       tot
------------------------------------------
    1        0.869   1.762   0.000   2.632
    2        0.878   1.790   0.000   2.668
    3        0.869   1.761   0.000   2.630
    4        0.869   1.762   0.000   2.631
    5        0.878   1.790   0.000   2.668
    6        0.878   1.791   0.000   2.668
    7        0.878   1.791   0.000   2.668
    8        0.869   1.761   0.000   2.630
    9        0.878   1.790   0.000   2.668
   10        0.869   1.762   0.000   2.632
   11        0.878   1.790   0.000   2.668
   12        0.878   1.790   0.000   2.668
   13        0.878   1.790   0.000   2.668
   14        0.869   1.761   0.000   2.630
   15        0.869   1.762   0.000   2.632
   16        0.869   1.761   0.000   2.630
   17        0.866   1.730   0.000   2.596
   18        0.865   1.723   0.000   2.588
   19        0.866   1.723   0.000   2.589
   20        0.866   1.723   0.000   2.588
   21        0.866   1.723   0.000   2.589
   22        0.866   1.730   0.000   2.596
   23        0.866   1.730   0.000   2.596
   24        0.866   1.729   0.000   2.595
   25        0.866   1.729   0.000   2.595
   26        0.866   1.723   0.000   2.588
   27        0.866   1.723   0.000   2.589
   28        0.866   1.723   0.000   2.589
   29        0.866   1.729   0.000   2.595
   30        0.866   1.729   0.000   2.594
   31        0.866   1.730   0.000   2.596
   32        0.866   1.723   0.000   2.589
   33        0.872   1.809   0.000   2.681
   34        0.869   1.809   0.000   2.677
   35        0.869   1.808   0.000   2.677
   36        0.869   1.808   0.000   2.677
   37        0.869   1.808   0.000   2.677
   38        0.872   1.809   0.000   2.681
   39        0.872   1.809   0.000   2.681
   40        0.871   1.808   0.000   2.679
   41        0.871   1.808   0.000   2.679
   42        0.869   1.809   0.000   2.677
   43        0.869   1.808   0.000   2.677
   44        0.869   1.808   0.000   2.677
   45        0.871   1.808   0.000   2.679
   46        0.871   1.808   0.000   2.679
   47        0.872   1.809   0.000   2.681
   48        0.869   1.808   0.000   2.677
   49        0.876   1.791   0.000   2.667
   50        0.877   1.783   0.000   2.660
   51        0.878   1.784   0.000   2.662
   52        0.878   1.783   0.000   2.661
   53        0.878   1.784   0.000   2.662
   54        0.876   1.791   0.000   2.667
   55        0.877   1.790   0.000   2.667
   56        0.876   1.790   0.000   2.665
   57        0.876   1.790   0.000   2.665
   58        0.877   1.783   0.000   2.660
   59        0.878   1.784   0.000   2.662
   60        0.878   1.783   0.000   2.661
   61        0.876   1.789   0.000   2.665
   62        0.876   1.789   0.000   2.665
   63        0.876   1.790   0.000   2.667
   64        0.878   1.784   0.000   2.662
   65        0.853   1.806   0.000   2.659
   66        0.853   1.804   0.000   2.656
   67        0.853   1.805   0.000   2.659
   68        0.853   1.804   0.000   2.657
   69        0.853   1.806   0.000   2.659
   70        0.853   1.804   0.000   2.656
   71        0.853   1.804   0.000   2.657
   72        0.853   1.806   0.000   2.659
   73        0.870   1.808   0.000   2.678
   74        0.870   1.809   0.000   2.679
   75        0.870   1.808   0.000   2.678
   76        0.870   1.808   0.000   2.678
   77        0.870   1.808   0.000   2.678
   78        0.870   1.808   0.000   2.678
   79        0.870   1.809   0.000   2.679
   80        0.870   1.808   0.000   2.678
   81        0.397   0.514   6.057   6.968
   82        0.398   0.514   6.057   6.969
   83        0.397   0.514   6.060   6.971
   84        0.397   0.514   6.060   6.971
   85        0.647   0.053   0.000   0.700
   86        0.647   0.051   0.000   0.698
   87        0.647   0.051   0.000   0.698
   88        0.647   0.051   0.000   0.698
   89        0.647   0.051   0.000   0.698
   90        0.647   0.053   0.000   0.700
   91        0.647   0.053   0.000   0.700
   92        0.648   0.053   0.000   0.701
   93        0.648   0.053   0.000   0.701
   94        0.647   0.051   0.000   0.698
   95        0.647   0.051   0.000   0.698
   96        0.647   0.051   0.000   0.698
   97        0.648   0.053   0.000   0.701
   98        0.648   0.053   0.000   0.700
   99        0.648   0.053   0.000   0.700
  100        0.647   0.051   0.000   0.698
  101        0.636   0.052   0.000   0.688
  102        0.636   0.052   0.000   0.688
  103        0.628   0.051   0.000   0.679
  104        0.629   0.051   0.000   0.679
  105        0.636   0.052   0.000   0.688
  106        0.629   0.051   0.000   0.679
  107        0.629   0.051   0.000   0.679
  108        0.636   0.052   0.000   0.688
  109        0.628   0.051   0.000   0.679
  110        0.628   0.051   0.000   0.679
  111        0.637   0.052   0.000   0.688
  112        0.636   0.052   0.000   0.688
  113        0.628   0.051   0.000   0.679
  114        0.636   0.052   0.000   0.688
  115        0.636   0.052   0.000   0.688
  116        0.628   0.051   0.000   0.679
  117        1.239   2.601   0.000   3.840
  118        1.240   2.622   0.000   3.863
  119        1.239   2.600   0.000   3.839
  120        1.239   2.601   0.000   3.840
  121        1.241   2.621   0.000   3.861
  122        1.240   2.622   0.000   3.863
  123        1.240   2.622   0.000   3.863
  124        1.239   2.600   0.000   3.839
  125        1.241   2.621   0.000   3.862
  126        1.239   2.601   0.000   3.840
  127        1.241   2.621   0.000   3.861
  128        1.240   2.622   0.000   3.863
  129        1.240   2.621   0.000   3.861
  130        1.239   2.600   0.000   3.839
  131        1.239   2.601   0.000   3.840
  132        1.239   2.600   0.000   3.839
  133        1.215   2.742   0.000   3.956
  134        1.214   2.740   0.000   3.955
  135        1.215   2.742   0.000   3.957
  136        1.214   2.740   0.000   3.955
  137        1.215   2.742   0.000   3.957
  138        1.214   2.740   0.000   3.954
  139        1.214   2.740   0.000   3.955
  140        1.215   2.742   0.000   3.957
  141        1.584   3.545   0.000   5.129
  142        1.584   3.550   0.000   5.133
  143        1.584   3.550   0.000   5.133
  144        1.584   3.550   0.000   5.133
  145        1.584   3.550   0.000   5.133
  146        1.584   3.545   0.000   5.128
  147        1.584   3.544   0.000   5.129
  148        1.584   3.544   0.000   5.128
  149        1.584   3.544   0.000   5.128
  150        1.584   3.550   0.000   5.133
  151        1.584   3.550   0.000   5.133
  152        1.584   3.550   0.000   5.133
  153        1.584   3.544   0.000   5.128
  154        1.584   3.544   0.000   5.128
  155        1.584   3.544   0.000   5.129
  156        1.584   3.550   0.000   5.133
--------------------------------------------------
tot        146.524 266.626  24.234 437.385
 


 magnetization (x)
 
# of ion       s       p       d       tot
------------------------------------------
    1        0.003   0.022   0.000   0.025
    2        0.003   0.023   0.000   0.025
    3        0.003   0.022   0.000   0.025
    4       -0.003  -0.022   0.000  -0.025
    5       -0.003  -0.022   0.000  -0.025
    6        0.003   0.023   0.000   0.025
    7       -0.003  -0.022   0.000  -0.025
    8       -0.003  -0.022   0.000  -0.025
    9       -0.003  -0.022   0.000  -0.025
   10        0.003   0.022   0.000   0.025
   11        0.003   0.022   0.000   0.025
   12       -0.003  -0.023   0.000  -0.025
   13        0.003   0.022   0.000   0.025
   14        0.003   0.022   0.000   0.025
   15       -0.003  -0.022   0.000  -0.025
   16       -0.003  -0.022   0.000  -0.025
   17        0.000   0.001   0.000   0.001
   18        0.000   0.001   0.000   0.001
   19        0.000   0.001   0.000   0.001
   20       -0.000  -0.001   0.000  -0.001
   21       -0.000  -0.001   0.000  -0.001
   22        0.000   0.001   0.000   0.001
   23       -0.000  -0.001   0.000  -0.001
   24       -0.000  -0.001   0.000  -0.001
   25       -0.000  -0.001   0.000  -0.001
   26        0.000   0.001   0.000   0.001
   27        0.000   0.001   0.000   0.001
   28       -0.000  -0.001   0.000  -0.001
   29        0.000   0.001   0.000   0.001
   30        0.000   0.001   0.000   0.001
   31       -0.000  -0.001   0.000  -0.001
   32       -0.000  -0.001   0.000  -0.001
   33       -0.000  -0.000   0.000  -0.000
   34        0.000  -0.000   0.000  -0.000
   35        0.000  -0.000   0.000  -0.000
   36       -0.000   0.000   0.000   0.000
   37       -0.000   0.000   0.000   0.000
   38       -0.000  -0.000   0.000  -0.000
   39        0.000   0.000   0.000   0.000
   40        0.000   0.000   0.000   0.000
   41        0.000   0.000   0.000   0.000
   42        0.000  -0.000   0.000  -0.000
   43        0.000  -0.000   0.000  -0.000
   44       -0.000   0.000   0.000   0.000
   45       -0.000  -0.000   0.000  -0.000
   46       -0.000  -0.000   0.000  -0.000
   47        0.000   0.000   0.000   0.000
   48       -0.000   0.000   0.000   0.000
   49        0.000   0.000   0.000   0.000
   50        0.000   0.000   0.000   0.000
   51        0.000   0.000   0.000   0.000
   52       -0.000  -0.000   0.000  -0.000
   53       -0.000  -0.000   0.000  -0.000
   54        0.000   0.000   0.000   0.000
   55       -0.000  -0.000   0.000  -0.000
   56       -0.000  -0.000   0.000  -0.000
   57       -0.000  -0.000   0.000  -0.000
   58        0.000   0.000   0.000   0.000
   59        0.000   0.000   0.000   0.000
   60       -0.000  -0.000   0.000  -0.000
   61        0.000   0.000   0.000   0.000
   62        0.000   0.000   0.000   0.000
   63       -0.000  -0.000   0.000  -0.000
   64       -0.000  -0.000   0.000  -0.000
   65        0.002   0.015   0.000   0.017
   66        0.002   0.015   0.000   0.017
   67       -0.002  -0.015   0.000  -0.017
   68       -0.002  -0.015   0.000  -0.017
   69        0.002   0.015   0.000   0.017
   70       -0.002  -0.015   0.000  -0.017
   71        0.002   0.015   0.000   0.017
   72       -0.002  -0.015   0.000  -0.017
   73        0.000   0.000   0.000   0.000
   74        0.000   0.000   0.000   0.000
   75       -0.000  -0.000   0.000  -0.000
   76       -0.000  -0.000   0.000  -0.000
   77        0.000   0.000   0.000   0.000
   78       -0.000  -0.000   0.000  -0.000
   79        0.000   0.000   0.000   0.000
   80       -0.000  -0.000   0.000  -0.000
   81        0.020   0.079   3.412   3.511
   82        0.020   0.080   3.412   3.511
   83       -0.020  -0.079  -3.410  -3.509
   84       -0.020  -0.079  -3.410  -3.509
   85        0.000  -0.000   0.000   0.000
   86        0.000  -0.000   0.000   0.000
   87        0.000  -0.000   0.000  -0.000
   88       -0.000   0.000   0.000  -0.000
   89       -0.000   0.000   0.000  -0.000
   90        0.000  -0.000   0.000   0.000
   91       -0.000   0.000   0.000  -0.000
   92       -0.000   0.000   0.000  -0.000
   93       -0.000   0.000   0.000  -0.000
   94        0.000  -0.000   0.000   0.000
   95        0.000  -0.000   0.000  -0.000
   96       -0.000   0.000   0.000  -0.000
   97        0.000  -0.000   0.000   0.000
   98        0.000  -0.000   0.000   0.000
   99       -0.000   0.000   0.000  -0.000
  100       -0.000   0.000   0.000  -0.000
  101       -0.000  -0.000   0.000  -0.000
  102       -0.000  -0.000   0.000  -0.000
  103       -0.000  -0.000   0.000  -0.001
  104        0.000   0.000   0.000   0.001
  105        0.000   0.000   0.000   0.000
  106       -0.000  -0.000   0.000  -0.001
  107        0.000   0.000   0.000   0.001
  108        0.000   0.000   0.000   0.000
  109        0.000   0.000   0.000   0.001
  110       -0.000  -0.000   0.000  -0.001
  111       -0.000  -0.000   0.000  -0.000
  112        0.000   0.000   0.000   0.000
  113       -0.000  -0.000   0.000  -0.001
  114       -0.000  -0.000   0.000  -0.000
  115        0.000   0.000   0.000   0.000
  116        0.000   0.000   0.000   0.001
  117        0.010   0.037   0.000   0.047
  118        0.017   0.054   0.000   0.071
  119        0.010   0.036   0.000   0.046
  120       -0.010  -0.037   0.000  -0.047
  121       -0.017  -0.054   0.000  -0.071
  122        0.017   0.054   0.000   0.071
  123       -0.017  -0.054   0.000  -0.071
  124       -0.010  -0.036   0.000  -0.046
  125       -0.017  -0.054   0.000  -0.071
  126        0.010   0.037   0.000   0.047
  127        0.017   0.054   0.000   0.071
  128       -0.017  -0.054   0.000  -0.071
  129        0.017   0.054   0.000   0.071
  130        0.010   0.036   0.000   0.046
  131       -0.010  -0.037   0.000  -0.047
  132       -0.010  -0.036   0.000  -0.046
  133        0.000   0.000   0.000   0.000
  134        0.000   0.000   0.000   0.000
  135       -0.000  -0.000   0.000  -0.000
  136       -0.000  -0.001   0.000  -0.001
  137        0.000   0.000   0.000   0.000
  138       -0.000  -0.001   0.000  -0.001
  139        0.000   0.000   0.000   0.000
  140       -0.000  -0.000   0.000  -0.000
  141        0.000   0.002   0.000   0.002
  142        0.000   0.001   0.000   0.001
  143        0.000   0.001   0.000   0.001
  144       -0.000  -0.001   0.000  -0.001
  145       -0.000  -0.001   0.000  -0.001
  146        0.000   0.002   0.000   0.002
  147       -0.000  -0.002   0.000  -0.002
  148       -0.000  -0.002   0.000  -0.002
  149       -0.000  -0.002   0.000  -0.002
  150        0.000   0.001   0.000   0.001
  151        0.000   0.001   0.000   0.001
  152       -0.000  -0.001   0.000  -0.001
  153        0.000   0.002   0.000   0.002
  154        0.000   0.002   0.000   0.002
  155       -0.000  -0.002   0.000  -0.002
  156       -0.000  -0.001   0.000  -0.001
--------------------------------------------------
tot          0.000   0.002   0.005   0.007
 

 total amount of memory used by VASP MPI-rank0    87838. kBytes
=======================================================================

   base      :      30000. kBytes
   nonlr-proj:       6668. kBytes
   fftplans  :       3883. kBytes
   grid      :      10636. kBytes
   one-center:       1213. kBytes
   wavefun   :      35438. kBytes
 
  
  
 General timing and accounting informations for this job:
 ========================================================
  
                  Total CPU time used (sec):     2838.167
                            User time (sec):     2718.956
                          System time (sec):      119.211
                         Elapsed time (sec):     2865.786
  
                   Maximum memory used (kb):     1104508.
                   Average memory used (kb):           0.
  
                          Minor page faults:        67633
                          Major page faults:            7
                 Voluntary context switches:        35124
