       N       E                     dE             d eps       ncg     rms          rms(c)
RMM:   1     0.780128015388E+04    0.78013E+04   -0.23234E+05  2400   0.127E+03
RMM:   2     0.290443889888E+04   -0.48968E+04   -0.67600E+04  2400   0.285E+02
RMM:   3     0.789387246091E+03   -0.21151E+04   -0.28292E+04  2400   0.181E+02
RMM:   4    -0.488020380306E+03   -0.12774E+04   -0.12670E+04  2400   0.148E+02
RMM:   5    -0.986211779421E+03   -0.49819E+03   -0.44406E+03  2400   0.927E+01
RMM:   6    -0.115407262321E+04   -0.16786E+03   -0.14655E+03  2400   0.565E+01
RMM:   7    -0.120736120109E+04   -0.53289E+02   -0.49322E+02  2400   0.324E+01
RMM:   8    -0.122712861960E+04   -0.19767E+02   -0.17474E+02  2400   0.200E+01
RMM:   9    -0.123873843370E+04   -0.11610E+02   -0.11108E+02  5806   0.118E+01
RMM:  10    -0.123942102661E+04   -0.68259E+00   -0.66915E+00  6348   0.341E+00
RMM:  11    -0.123946867906E+04   -0.47652E-01   -0.39434E-01  5904   0.696E-01
RMM:  12    -0.123947042518E+04   -0.17461E-02   -0.17592E-02  6280   0.177E-01    0.578E+01
RMM:  13    -0.116776573728E+04    0.71705E+02   -0.15996E+02  4800   0.164E+01    0.321E+01
RMM:  14    -0.115285790777E+04    0.14908E+02   -0.43652E+01  4800   0.850E+00    0.149E+01
RMM:  15    -0.115128361371E+04    0.15743E+01   -0.10424E+01  4800   0.444E+00    0.498E+00
RMM:  16    -0.115105499990E+04    0.22861E+00   -0.81015E-01  4907   0.140E+00    0.141E+00
RMM:  17    -0.115102652926E+04    0.28471E-01   -0.16663E-01  4836   0.674E-01    0.498E-01
RMM:  18    -0.115101541567E+04    0.11114E-01   -0.59831E-02  4816   0.308E-01    0.300E-01
RMM:  19    -0.115101314419E+04    0.22715E-02   -0.14514E-02  4815   0.170E-01    0.154E-01
RMM:  20    -0.115102067459E+04   -0.75304E-02   -0.14641E-02  4801   0.137E-01    0.866E-02
RMM:  21    -0.115102412207E+04   -0.34475E-02   -0.42644E-03  4931   0.719E-02    0.685E-02
RMM:  22    -0.115102911564E+04   -0.49936E-02   -0.15021E-03  4815   0.464E-02    0.330E-02
RMM:  23    -0.115103068543E+04   -0.15698E-02   -0.30704E-04  4862   0.218E-02    0.215E-02
RMM:  24    -0.115103243472E+04   -0.17493E-02   -0.13848E-04  4801   0.136E-02    0.131E-02
RMM:  25    -0.115103374091E+04   -0.13062E-02   -0.11823E-04  4752   0.117E-02    0.821E-03
RMM:  26    -0.115103427361E+04   -0.53270E-03   -0.34112E-05  4397   0.579E-03    0.434E-03
RMM:  27    -0.115103451299E+04   -0.23937E-03   -0.14344E-05  4074   0.341E-03    0.227E-03
RMM:  28    -0.115103459870E+04   -0.85714E-04   -0.48885E-06  3489   0.206E-03    0.119E-03
RMM:  29    -0.115103463969E+04   -0.40993E-04   -0.26135E-06  3174   0.136E-03    0.717E-04
RMM:  30    -0.115103465494E+04   -0.15247E-04   -0.14012E-06  2816   0.109E-03    0.650E-04
RMM:  31    -0.115103465805E+04   -0.31104E-05   -0.47150E-07  2467   0.833E-04    0.433E-04
RMM:  32    -0.115103465928E+04   -0.12322E-05   -0.24516E-07  2362   0.604E-04    0.342E-04
RMM:  33    -0.115103465968E+04   -0.39649E-06   -0.10626E-07  2017   0.444E-04
   1 F= -.11619104E+04 E0= -.11619104E+04  d E =-.116191E+04
