 vasp.6.0.8 29Jun18 (build Mar 14 2019 11:44:20) complex                        
  
 executed on             LinuxIFC date 2021.01.11  13:02:37
 running   64 mpi-ranks, with    1 threads/rank
 distrk:  each k-point on   64 cores,    1 groups
 distr:  one band on NCORES_PER_BAND=   4 cores,   16 groups


--------------------------------------------------------------------------------------------------------


 INCAR:
 POTCAR:    PAW_PBE C 08Apr2002                   
 POTCAR:    PAW_PBE Zn 06Sep2000                  
 POTCAR:    PAW_PBE H 15Jun2001                   
 POTCAR:    PAW_PBE N 08Apr2002                   
 POTCAR:    PAW_PBE O 08Apr2002                   
 POTCAR:    PAW_PBE C 08Apr2002                   
   VRHFIN =C: s2p2                                                              
   LEXCH  = PE                                                                  
   EATOM  =   147.1560 eV,   10.8157 Ry                                         
                                                                                
   TITEL  = PAW_PBE C 08Apr2002                                                 
   LULTRA =        F    use ultrasoft PP ?                                      
   IUNSCR =        1    unscreen: 0-lin 1-nonlin 2-no                           
   RPACOR =    1.200    partial core radius                                     
   POMASS =   12.011; ZVAL   =    4.000    mass and valenz                      
   RCORE  =    1.500    outmost cutoff radius                                   
   RWIGS  =    1.630; RWIGS  =    0.863    wigner-seitz radius (au A)           
   ENMAX  =  400.000; ENMIN  =  300.000 eV                                      
   ICORE  =        2    local potential                                         
   LCOR   =        T    correct aug charges                                     
   LPAW   =        T    paw PP                                                  
   EAUG   =  644.873                                                            
   DEXC   =    0.000                                                            
   RMAX   =    1.529    core radius for proj-oper                               
   RAUG   =    1.300    factor for augmentation sphere                          
   RDEP   =    1.501    radius for radial grids                                 
   RDEPT  =    1.300    core radius for aug-charge                              
                                                                                
   Atomic configuration                                                         
    4 entries                                                                   
     n  l   j            E        occ.                                          
     1  0  0.50      -273.3789   2.0000                                         
     2  0  0.50       -13.7508   2.0000                                         
     2  1  0.50        -5.2854   2.0000                                         
     3  2  1.50        -5.4423   0.0000                                         
   Description                                                                  
     l       E           TYP  RCUT    TYP  RCUT                                 
     0    -13.7508458     23  1.200                                             
     0     -8.2022199     23  1.200                                             
     1     -5.2854383     23  1.500                                             
     1     34.0145650     23  1.500                                             
     2     -5.4423304      7  1.500                                             
  local pseudopotential read in
  partial core-charges read in
  partial kinetic energy density read in
  atomic valenz-charges read in
  non local Contribution for L=           0  read in
    real space projection operators read in
  non local Contribution for L=           0  read in
    real space projection operators read in
  non local Contribution for L=           1  read in
    real space projection operators read in
  non local Contribution for L=           1  read in
    real space projection operators read in
    PAW grid and wavefunctions read in
 
   number of l-projection  operators is LMAX  =           4
   number of lm-projection operators is LMMAX =           8
 
 POTCAR:    PAW_PBE Zn 06Sep2000                  
   VRHFIN =Zn: d10 p2                                                           
   LEXCH  = PE                                                                  
   EATOM  =  1748.8345 eV,  128.5357 Ry                                         
                                                                                
   TITEL  = PAW_PBE Zn 06Sep2000                                                
   LULTRA =        F    use ultrasoft PP ?                                      
   IUNSCR =        1    unscreen: 0-lin 1-nonlin 2-no                           
   RPACOR =    2.000    partial core radius                                     
   POMASS =   65.390; ZVAL   =   12.000    mass and valenz                      
   RCORE  =    2.300    outmost cutoff radius                                   
   RWIGS  =    2.400; RWIGS  =    1.270    wigner-seitz radius (au A)           
   ENMAX  =  276.723; ENMIN  =  207.542 eV                                      
   RCLOC  =    1.828    cutoff for local pot                                    
   LCOR   =        T    correct aug charges                                     
   LPAW   =        T    paw PP                                                  
   EAUG   =  575.892                                                            
   DEXC   =    0.000                                                            
   RMAX   =    2.347    core radius for proj-oper                               
   RAUG   =    1.300    factor for augmentation sphere                          
   RDEP   =    2.324    radius for radial grids                                 
   RDEPT  =    1.788    core radius for aug-charge                              
                                                                                
   Atomic configuration                                                         
    9 entries                                                                   
     n  l   j            E        occ.                                          
     1  0  0.50     -9524.6913   2.0000                                         
     2  0  0.50     -1158.1882   2.0000                                         
     2  1  1.50     -1003.8506   6.0000                                         
     3  0  0.50      -129.2194   2.0000                                         
     3  1  1.50       -83.3890   6.0000                                         
     3  2  2.50       -10.1410  10.0000                                         
     4  0  0.50        -5.9785   2.0000                                         
     4  1  0.50        -4.0817   0.0000                                         
     4  3  2.50        -1.3606   0.0000                                         
   Description                                                                  
     l       E           TYP  RCUT    TYP  RCUT                                 
     2    -10.1410010     23  2.300                                             
     2    -11.5015836     23  2.300                                             
     0     -5.9785163     23  2.300                                             
     0      1.1858015     23  2.300                                             
     1     -2.7211652     23  2.300                                             
     1     13.2444212     23  2.300                                             
  local pseudopotential read in
  partial core-charges read in
  partial kinetic energy density read in
  atomic valenz-charges read in
  non local Contribution for L=           2  read in
    real space projection operators read in
  non local Contribution for L=           2  read in
    real space projection operators read in
  non local Contribution for L=           0  read in
    real space projection operators read in
  non local Contribution for L=           0  read in
    real space projection operators read in
  non local Contribution for L=           1  read in
    real space projection operators read in
  non local Contribution for L=           1  read in
    real space projection operators read in
    PAW grid and wavefunctions read in
 
   number of l-projection  operators is LMAX  =           6
   number of lm-projection operators is LMMAX =          18
 
 POTCAR:    PAW_PBE H 15Jun2001                   
   VRHFIN =H: ultrasoft test                                                    
   LEXCH  = PE                                                                  
   EATOM  =    12.4884 eV,    0.9179 Ry                                         
                                                                                
   TITEL  = PAW_PBE H 15Jun2001                                                 
   LULTRA =        F    use ultrasoft PP ?                                      
   IUNSCR =        0    unscreen: 0-lin 1-nonlin 2-no                           
   RPACOR =    0.000    partial core radius                                     
   POMASS =    1.000; ZVAL   =    1.000    mass and valenz                      
   RCORE  =    1.100    outmost cutoff radius                                   
   RWIGS  =    0.700; RWIGS  =    0.370    wigner-seitz radius (au A)           
   ENMAX  =  250.000; ENMIN  =  200.000 eV                                      
   RCLOC  =    0.701    cutoff for local pot                                    
   LCOR   =        T    correct aug charges                                     
   LPAW   =        T    paw PP                                                  
   EAUG   =  400.000                                                            
   RMAX   =    1.123    core radius for proj-oper                               
   RAUG   =    1.200    factor for augmentation sphere                          
   RDEP   =    1.112    radius for radial grids                                 
   RDEPT  =    0.926    core radius for aug-charge                              
                                                                                
   Atomic configuration                                                         
    2 entries                                                                   
     n  l   j            E        occ.                                          
     1  0  0.50        -6.4927   1.0000                                         
     2  1  0.50        -3.4015   0.0000                                         
   Description                                                                  
     l       E           TYP  RCUT    TYP  RCUT                                 
     0     -6.4927494     23  1.100                                             
     0      6.8029130     23  1.100                                             
     1     -4.0817478     23  1.100                                             
  local pseudopotential read in
  atomic valenz-charges read in
  non local Contribution for L=           0  read in
    real space projection operators read in
  non local Contribution for L=           0  read in
    real space projection operators read in
  non local Contribution for L=           1  read in
    real space projection operators read in
    PAW grid and wavefunctions read in
 
   number of l-projection  operators is LMAX  =           3
   number of lm-projection operators is LMMAX =           5
 
 POTCAR:    PAW_PBE N 08Apr2002                   
   VRHFIN =N: s2p3                                                              
   LEXCH  = PE                                                                  
   EATOM  =   264.5486 eV,   19.4438 Ry                                         
                                                                                
   TITEL  = PAW_PBE N 08Apr2002                                                 
   LULTRA =        F    use ultrasoft PP ?                                      
   IUNSCR =        1    unscreen: 0-lin 1-nonlin 2-no                           
   RPACOR =    1.200    partial core radius                                     
   POMASS =   14.001; ZVAL   =    5.000    mass and valenz                      
   RCORE  =    1.500    outmost cutoff radius                                   
   RWIGS  =    1.400; RWIGS  =    0.741    wigner-seitz radius (au A)           
   ENMAX  =  400.000; ENMIN  =  300.000 eV                                      
   ICORE  =        2    local potential                                         
   LCOR   =        T    correct aug charges                                     
   LPAW   =        T    paw PP                                                  
   EAUG   =  627.112                                                            
   DEXC   =    0.000                                                            
   RMAX   =    1.529    core radius for proj-oper                               
   RAUG   =    1.300    factor for augmentation sphere                          
   RDEP   =    1.514    radius for radial grids                                 
   RDEPT  =    1.338    core radius for aug-charge                              
                                                                                
   Atomic configuration                                                         
    4 entries                                                                   
     n  l   j            E        occ.                                          
     1  0  0.50      -384.7179   2.0000                                         
     2  0  0.50       -18.5828   2.0000                                         
     2  1  0.50        -7.0898   3.0000                                         
     3  2  1.50        -6.8029   0.0000                                         
   Description                                                                  
     l       E           TYP  RCUT    TYP  RCUT                                 
     0    -18.5828119     23  1.200                                             
     0    -13.5018863     23  1.200                                             
     1     -7.0897853     23  1.500                                             
     1      9.5240782     23  1.500                                             
     2     -6.8029130      7  1.500                                             
  local pseudopotential read in
  partial core-charges read in
  partial kinetic energy density read in
  atomic valenz-charges read in
  non local Contribution for L=           0  read in
    real space projection operators read in
  non local Contribution for L=           0  read in
    real space projection operators read in
  non local Contribution for L=           1  read in
    real space projection operators read in
  non local Contribution for L=           1  read in
    real space projection operators read in
    PAW grid and wavefunctions read in
 
   number of l-projection  operators is LMAX  =           4
   number of lm-projection operators is LMMAX =           8
 
 POTCAR:    PAW_PBE O 08Apr2002                   
   VRHFIN =O: s2p4                                                              
   LEXCH  = PE                                                                  
   EATOM  =   432.3788 eV,   31.7789 Ry                                         
                                                                                
   TITEL  = PAW_PBE O 08Apr2002                                                 
   LULTRA =        F    use ultrasoft PP ?                                      
   IUNSCR =        1    unscreen: 0-lin 1-nonlin 2-no                           
   RPACOR =    1.200    partial core radius                                     
   POMASS =   16.000; ZVAL   =    6.000    mass and valenz                      
   RCORE  =    1.520    outmost cutoff radius                                   
   RWIGS  =    1.550; RWIGS  =    0.820    wigner-seitz radius (au A)           
   ENMAX  =  400.000; ENMIN  =  300.000 eV                                      
   ICORE  =        2    local potential                                         
   LCOR   =        T    correct aug charges                                     
   LPAW   =        T    paw PP                                                  
   EAUG   =  605.392                                                            
   DEXC   =    0.000                                                            
   RMAX   =    1.553    core radius for proj-oper                               
   RAUG   =    1.300    factor for augmentation sphere                          
   RDEP   =    1.550    radius for radial grids                                 
   RDEPT  =    1.329    core radius for aug-charge                              
                                                                                
   Atomic configuration                                                         
    4 entries                                                                   
     n  l   j            E        occ.                                          
     1  0  0.50      -514.6923   2.0000                                         
     2  0  0.50       -23.9615   2.0000                                         
     2  1  0.50        -9.0305   4.0000                                         
     3  2  1.50        -9.5241   0.0000                                         
   Description                                                                  
     l       E           TYP  RCUT    TYP  RCUT                                 
     0    -23.9615318     23  1.200                                             
     0     -9.5240782     23  1.200                                             
     1     -9.0304911     23  1.520                                             
     1      8.1634956     23  1.520                                             
     2     -9.5240782      7  1.500                                             
  local pseudopotential read in
  partial core-charges read in
  partial kinetic energy density read in
  kinetic energy density of atom read in
  atomic valenz-charges read in
  non local Contribution for L=           0  read in
    real space projection operators read in
  non local Contribution for L=           0  read in
    real space projection operators read in
  non local Contribution for L=           1  read in
    real space projection operators read in
  non local Contribution for L=           1  read in
    real space projection operators read in
    PAW grid and wavefunctions read in
 
   number of l-projection  operators is LMAX  =           4
   number of lm-projection operators is LMMAX =           8
 
 Optimization of the real space projectors (new method)

 maximal supplied QI-value         = 25.13
 optimisation between [QCUT,QGAM] = [ 12.32, 24.88] = [ 42.47,173.37] Ry 
 Optimized for a Real-space Cutoff    1.06 Angstroem

   l    n(q)    QCUT    max X(q) W(low)/X(q) W(high)/X(q)  e(spline) 
   0      8    12.315   115.676    0.34E-03    0.18E-03    0.23E-06
   0      8    12.315    87.132    0.34E-03    0.18E-03    0.22E-06
   1      7    12.315     4.429    0.45E-03    0.12E-03    0.18E-06
   1      7    12.315     2.733    0.35E-03    0.97E-04    0.15E-06
 Optimization of the real space projectors (new method)

 maximal supplied QI-value         = 16.25
 optimisation between [QCUT,QGAM] = [ 12.51, 25.03] = [ 43.85,175.40] Ry 
 Optimized for a Real-space Cutoff    1.31 Angstroem

   l    n(q)    QCUT    max X(q) W(low)/X(q) W(high)/X(q)  e(spline) 
   2      9    12.514    46.356    0.36E-03    0.54E-03    0.48E-06
   2      9    12.514    41.843    0.37E-03    0.56E-03    0.49E-06
   0     10    12.514    48.958    0.13E-03    0.28E-03    0.23E-06
   0     10    12.514    32.776    0.12E-03    0.26E-03    0.22E-06
   1      9    12.514    17.787    0.44E-03    0.44E-04    0.36E-06
   1      9    12.514    14.435    0.39E-03    0.39E-04    0.32E-06
 Optimization of the real space projectors (new method)

 maximal supplied QI-value         = 34.20
 optimisation between [QCUT,QGAM] = [ 12.31, 24.97] = [ 42.46,174.58] Ry 
 Optimized for a Real-space Cutoff    1.00 Angstroem

   l    n(q)    QCUT    max X(q) W(low)/X(q) W(high)/X(q)  e(spline) 
   0      7    12.313    19.460    0.14E-03    0.42E-03    0.16E-06
   0      7    12.313    12.209    0.12E-03    0.40E-03    0.16E-06
   1      7    12.313     4.655    0.33E-03    0.59E-03    0.89E-07
 Optimization of the real space projectors (new method)

 maximal supplied QI-value         = 25.13
 optimisation between [QCUT,QGAM] = [ 12.32, 24.88] = [ 42.47,173.37] Ry 
 Optimized for a Real-space Cutoff    1.20 Angstroem

   l    n(q)    QCUT    max X(q) W(low)/X(q) W(high)/X(q)  e(spline) 
   0      9    12.315    79.467    0.14E-03    0.22E-04    0.37E-06
   0      9    12.315    66.151    0.14E-03    0.23E-04    0.36E-06
   1      8    12.315    22.077    0.30E-03    0.54E-03    0.45E-06
   1      8    12.315    15.894    0.30E-03    0.55E-03    0.45E-06
 Optimization of the real space projectors (new method)

 maximal supplied QI-value         = 24.76
 optimisation between [QCUT,QGAM] = [ 12.38, 25.00] = [ 42.90,175.06] Ry 
 Optimized for a Real-space Cutoff    1.13 Angstroem

   l    n(q)    QCUT    max X(q) W(low)/X(q) W(high)/X(q)  e(spline) 
   0      8    12.378    20.381    0.16E-03    0.54E-05    0.27E-06
   0      8    12.378    15.268    0.17E-03    0.61E-05    0.29E-06
   1      8    12.378     5.964    0.38E-03    0.23E-03    0.28E-06
   1      8    12.378     5.382    0.33E-03    0.20E-03    0.25E-06
  PAW_PBE C 08Apr2002                   :
 energy of atom  1       EATOM= -147.1560
 kinetic energy error for atom=    0.0057 (will be added to EATOM!!)
  PAW_PBE Zn 06Sep2000                  :
 energy of atom  2       EATOM=-1748.8345
 kinetic energy error for atom=    0.0020 (will be added to EATOM!!)
  PAW_PBE H 15Jun2001                   :
 energy of atom  3       EATOM=  -12.4884
 kinetic energy error for atom=    0.0004 (will be added to EATOM!!)
  PAW_PBE N 08Apr2002                   :
 energy of atom  4       EATOM= -264.5486
 kinetic energy error for atom=    0.0103 (will be added to EATOM!!)
  PAW_PBE O 08Apr2002                   :
 energy of atom  5       EATOM= -432.3788
 kinetic energy error for atom=    0.0168 (will be added to EATOM!!)
 
 
 POSCAR: Zn_H
  positions in direct lattice
  velocities in cartesian coordinates
 exchange correlation table for  LEXCH =        8
   RHO(1)=    0.500       N(1)  =     2000
   RHO(2)=  100.500       N(2)  =     4000
 


--------------------------------------------------------------------------------------------------------


 ion  position               nearest neighbor table
   1  0.937  0.963  0.144- 107 1.08 117 1.34  65 1.40
   2  0.865  0.952  0.417- 112 1.09 118 1.35  65 1.40
   3  0.937  0.793  0.902- 116 1.08 119 1.34  66 1.40
   4  0.563  0.463  0.644- 110 1.08 120 1.34  67 1.40
   5  0.634  0.304  0.128- 111 1.09 121 1.35  68 1.40
   6  0.134  0.804  0.129- 115 1.09 122 1.35  69 1.40
   7  0.635  0.452  0.917- 101 1.09 123 1.35  67 1.40
   8  0.562  0.293  0.402- 113 1.08 124 1.34  68 1.40
   9  0.365  0.452  0.417- 114 1.09 125 1.35  70 1.40
  10  0.062  0.793  0.402- 104 1.08 126 1.34  69 1.40
  11  0.135  0.952  0.917- 105 1.09 127 1.35  71 1.40
  12  0.365  0.304  0.628- 102 1.09 128 1.35  72 1.40
  13  0.865  0.804  0.629- 108 1.09 129 1.35  66 1.40
  14  0.063  0.963  0.644- 109 1.08 130 1.34  71 1.40
  15  0.437  0.293  0.901- 106 1.08 131 1.34  72 1.40
  16  0.437  0.463  0.143- 103 1.08 132 1.34  70 1.40
  17  0.794  0.024  0.098- 141 1.23 133 1.42  33 1.48
  18  0.849  0.061  0.467- 142 1.23 133 1.42  34 1.48
  19  0.850  0.695  0.578- 143 1.23 134 1.41  35 1.48
  20  0.650  0.561  0.966- 144 1.23 135 1.42  36 1.48
  21  0.650  0.195  0.078- 145 1.23 136 1.41  37 1.48
  22  0.205  0.732  0.448- 146 1.23 137 1.42  38 1.48
  23  0.706  0.524  0.597- 147 1.23 135 1.42  39 1.48
  24  0.705  0.232  0.448- 148 1.23 136 1.42  40 1.48
  25  0.294  0.524  0.097- 149 1.23 138 1.42  41 1.48
  26  0.150  0.695  0.078- 150 1.23 137 1.42  42 1.48
  27  0.150  0.061  0.966- 151 1.23 139 1.42  43 1.48
  28  0.350  0.195  0.578- 152 1.23 140 1.41  44 1.48
  29  0.795  0.732  0.948- 153 1.23 134 1.42  45 1.48
  30  0.206  0.024  0.597- 154 1.23 139 1.42  46 1.48
  31  0.295  0.232  0.948- 155 1.23 140 1.42  47 1.48
  32  0.349  0.561  0.466- 156 1.23 138 1.42  48 1.48
  33  0.757  0.068  0.098-  49 1.39  73 1.42  17 1.48
  34  0.813  0.104  0.457-  50 1.39  73 1.42  18 1.48
  35  0.813  0.651  0.588-  51 1.39  74 1.42  19 1.48
  36  0.687  0.604  0.957-  52 1.39  75 1.42  20 1.48
  37  0.687  0.152  0.088-  53 1.39  76 1.42  21 1.48
  38  0.243  0.688  0.447-  54 1.39  77 1.42  22 1.48
  39  0.743  0.568  0.597-  55 1.39  75 1.42  23 1.48
  40  0.743  0.188  0.448-  56 1.39  76 1.42  24 1.48
  41  0.257  0.568  0.097-  57 1.39  78 1.42  25 1.48
  42  0.187  0.652  0.088-  58 1.39  77 1.42  26 1.48
  43  0.187  0.104  0.957-  59 1.39  79 1.42  27 1.48
  44  0.313  0.151  0.587-  60 1.39  80 1.42  28 1.48
  45  0.757  0.688  0.948-  61 1.39  74 1.42  29 1.48
  46  0.243  0.068  0.597-  62 1.39  79 1.42  30 1.48
  47  0.257  0.188  0.947-  63 1.39  80 1.42  31 1.48
  48  0.313  0.604  0.457-  64 1.39  78 1.42  32 1.48
  49  0.711  0.071  0.921-  88 1.09  33 1.39  53 1.40
  50  0.823  0.143  0.629-  99 1.09  34 1.39  56 1.40
  51  0.823  0.613  0.416-  93 1.09  35 1.39  55 1.40
  52  0.677  0.643  0.129-  90 1.09  36 1.39  61 1.40
  53  0.677  0.113  0.917-  98 1.09  37 1.39  49 1.40
  54  0.288  0.684  0.624-  96 1.09  38 1.39  64 1.40
  55  0.788  0.571  0.421-  86 1.09  39 1.39  51 1.40
  56  0.788  0.184  0.624-  87 1.09  40 1.39  50 1.40
  57  0.212  0.571  0.920-  95 1.09  41 1.39  58 1.40
  58  0.177  0.613  0.916-  91 1.09  42 1.39  57 1.40
  59  0.177  0.143  0.128-  92 1.09  43 1.39  63 1.40
  60  0.323  0.113  0.416-  85 1.09  44 1.39  62 1.40
  61  0.712  0.684  0.124-  89 1.09  45 1.39  52 1.40
  62  0.288  0.071  0.421- 100 1.09  46 1.39  60 1.40
  63  0.212  0.184  0.124-  94 1.09  47 1.39  59 1.40
  64  0.322  0.643  0.628-  97 1.09  48 1.39  54 1.40
  65  0.877  0.982  0.283-   1 1.40   2 1.40 133 1.42
  66  0.877  0.774  0.762-   3 1.40  13 1.40 134 1.42
  67  0.623  0.482  0.783-   4 1.40   7 1.40 135 1.42
  68  0.623  0.274  0.262-   8 1.40   5 1.40 136 1.42
  69  0.122  0.774  0.262-  10 1.40   6 1.40 137 1.42
  70  0.377  0.482  0.283-  16 1.40   9 1.40 138 1.42
  71  0.123  0.982  0.783-  14 1.40  11 1.40 139 1.42
  72  0.377  0.274  0.762-  15 1.40  12 1.40 140 1.42
  73  0.767  0.107  0.275-  33 1.42  34 1.42  76 1.43
  74  0.768  0.649  0.770-  45 1.42  35 1.42  75 1.43
  75  0.733  0.607  0.775-  39 1.42  36 1.42  74 1.43
  76  0.732  0.149  0.270-  40 1.42  37 1.42  73 1.43
  77  0.232  0.649  0.270-  38 1.42  42 1.42  78 1.43
  78  0.267  0.607  0.274-  41 1.42  48 1.42  77 1.43
  79  0.232  0.107  0.774-  46 1.42  43 1.42  80 1.43
  80  0.268  0.149  0.770-  47 1.42  44 1.42  79 1.43
  81  0.035  0.878  0.023- 127 1.97 122 1.97 117 2.02 119 2.02
  82  0.964  0.878  0.523- 118 1.97 129 1.97 126 2.02 130 2.02
  83  0.464  0.378  0.523- 125 1.97 128 1.97 124 2.02 120 2.02
  84  0.535  0.378  0.023- 123 1.97 121 1.97 132 2.02 131 2.02
  85  0.358  0.116  0.278-  60 1.09
  86  0.796  0.541  0.287-  55 1.09
  87  0.795  0.215  0.759-  56 1.09
  88  0.704  0.041  0.787-  49 1.09
  89  0.705  0.715  0.259-  61 1.09
  90  0.642  0.640  0.267-  52 1.09
  91  0.141  0.616  0.778-  58 1.09
  92  0.142  0.140  0.266-  59 1.09
  93  0.858  0.616  0.279-  51 1.09
  94  0.205  0.215  0.258-  63 1.09
  95  0.204  0.541  0.786-  57 1.09
  96  0.295  0.715  0.758-  54 1.09
  97  0.358  0.640  0.766-  64 1.09
  98  0.641  0.116  0.779-  53 1.09
  99  0.858  0.140  0.767-  50 1.09
 100  0.295  0.041  0.286-  62 1.09
 101  0.674  0.455  0.053-   7 1.09
 102  0.326  0.301  0.492-  12 1.09
 103  0.464  0.475  0.014-  16 1.08
 104  0.036  0.780  0.531-  10 1.08
 105  0.174  0.955  0.053-  11 1.09
 106  0.464  0.280  0.030-  15 1.08
 107  0.964  0.976  0.015-   1 1.08
 108  0.826  0.801  0.492-  13 1.09
 109  0.036  0.976  0.515-  14 1.08
 110  0.536  0.476  0.515-   4 1.08
 111  0.673  0.301  0.992-   5 1.09
 112  0.826  0.955  0.553-   2 1.09
 113  0.536  0.280  0.530-   8 1.08
 114  0.326  0.455  0.553-   9 1.09
 115  0.173  0.801  0.992-   6 1.09
 116  0.964  0.780  0.030-   3 1.08
 117  0.960  0.924  0.192-   1 1.34 118 1.37  81 2.02
 118  0.915  0.917  0.358-   2 1.35 117 1.37  82 1.97
 119  0.960  0.832  0.854-   3 1.34 129 1.37  81 2.02
 120  0.540  0.424  0.691-   4 1.34 123 1.37  83 2.02
 121  0.584  0.339  0.188-   5 1.35 124 1.37  84 1.97
 122  0.084  0.839  0.188-   6 1.35 126 1.37  81 1.97
 123  0.584  0.417  0.857-   7 1.35 120 1.37  84 1.97
 124  0.540  0.332  0.354-   8 1.34 121 1.37  83 2.02
 125  0.415  0.417  0.357-   9 1.35 132 1.37  83 1.97
 126  0.040  0.832  0.355-  10 1.34 122 1.37  82 2.02
 127  0.084  0.917  0.858-  11 1.35 130 1.37  81 1.97
 128  0.415  0.339  0.688-  12 1.35 131 1.37  83 1.97
 129  0.915  0.839  0.688-  13 1.35 119 1.37  82 1.97
 130  0.040  0.924  0.692-  14 1.34 127 1.37  82 2.02
 131  0.460  0.332  0.854-  15 1.34 128 1.37  84 2.02
 132  0.460  0.424  0.191-  16 1.34 125 1.37  84 2.02
 133  0.838  0.023  0.285-  18 1.42  17 1.42  65 1.42
 134  0.838  0.733  0.761-  19 1.41  29 1.42  66 1.42
 135  0.662  0.523  0.784-  20 1.42  23 1.42  67 1.42
 136  0.662  0.233  0.261-  21 1.41  24 1.42  68 1.42
 137  0.162  0.733  0.261-  26 1.42  22 1.42  69 1.42
 138  0.338  0.523  0.284-  32 1.42  25 1.42  70 1.42
 139  0.162  0.023  0.784-  27 1.42  30 1.42  71 1.42
 140  0.338  0.233  0.760-  28 1.41  31 1.42  72 1.42
 141  0.787  0.990  0.945-  17 1.23
 142  0.888  0.057  0.623-  18 1.23
 143  0.889  0.699  0.422-  19 1.23
 144  0.611  0.557  0.122-  20 1.23
 145  0.611  0.199  0.922-  21 1.23
 146  0.212  0.766  0.600-  22 1.23
 147  0.712  0.490  0.445-  23 1.23
 148  0.712  0.266  0.601-  24 1.23
 149  0.287  0.490  0.944-  25 1.23
 150  0.111  0.699  0.922-  26 1.23
 151  0.111  0.057  0.122-  27 1.23
 152  0.389  0.199  0.422-  28 1.23
 153  0.788  0.766  0.101-  29 1.23
 154  0.212  0.990  0.445-  30 1.23
 155  0.288  0.266  0.100-  31 1.23
 156  0.388  0.557  0.622-  32 1.23
 

IMPORTANT INFORMATION: All symmetrisations will be switched off!
NOSYMM: (Re-)initialisation of all symmetry stuff for point group C_1.


----------------------------------------------------------------------------------------

                                     Primitive cell                                     

  volume of cell :    3238.4937

  direct lattice vectors                    reciprocal lattice vectors
    17.482086905 -0.001593335 -0.001260390     0.057201408 -0.000003124 -0.000003728
     0.001379745 29.995911276 -3.963662774     0.000003393  0.033895335  0.004218687
     0.000366498 -0.781496653  6.278988819     0.000013624  0.021396705  0.161924392

  length of vectors
    17.482087023 30.256657413  6.327435321     0.057201408  0.034156859  0.163331956

  position of ions in fractional coordinates (direct lattice)
     0.936935095  0.963193650  0.144042523
     0.864977725  0.952146671  0.417337991
     0.937347057  0.792699716  0.901706159
     0.562700106  0.463163209  0.643642350
     0.634424285  0.303748878  0.128244729
     0.134434345  0.803772751  0.128592982
     0.634722759  0.452055710  0.916669687
     0.562464593  0.292727096  0.401560341
     0.364965367  0.452089469  0.416683321
     0.062454417  0.792741202  0.401841797
     0.134682113  0.952089562  0.917016168
     0.365227832  0.303699623  0.628206540
     0.865292872  0.803700868  0.628526841
     0.062734057  0.963152984  0.643772584
     0.437293298  0.292694480  0.901353196
     0.436879650  0.463124481  0.143312430
     0.793810609  0.024093562  0.097529424
     0.849344903  0.060759782  0.466830624
     0.850046257  0.695023538  0.578498101
     0.650359010  0.560678245  0.966278737
     0.649915913  0.195111484  0.078433808
     0.205330676  0.731679184  0.447712826
     0.705987623  0.524014211  0.597089293
     0.705261409  0.231705994  0.448092012
     0.293744736  0.524040464  0.096657570
     0.149817433  0.695103172  0.078246109
     0.150299797  0.060697810  0.966051186
     0.349986388  0.195015606  0.578102227
     0.794624979  0.731614245  0.948067504
     0.205965728  0.024005740  0.596939963
     0.294502282  0.231629202  0.947542752
     0.349374708  0.560684409  0.465848044
     0.756561350  0.068113167  0.097566863
     0.812502278  0.104345722  0.457303029
     0.813236172  0.651418770  0.587985824
     0.687295456  0.604255524  0.956980612
     0.686676075  0.151500003  0.088068010
     0.242592929  0.687649254  0.447443943
     0.743246541  0.568043531  0.597239897
     0.742572881  0.187699850  0.447911149
     0.256594886  0.568095843  0.096702932
     0.186686210  0.651501395  0.087521554
     0.187205537  0.104275120  0.956636968
     0.313083425  0.151430067  0.587457518
     0.757336226  0.687597886  0.947852309
     0.243134721  0.068050447  0.596843082
     0.257198889  0.187618532  0.947346485
     0.312505316  0.604273938  0.456528533
     0.711457218  0.071362535  0.921307539
     0.822555085  0.142924217  0.628836164
     0.823279429  0.612842028  0.416450417
     0.677329427  0.642809664  0.128689828
     0.676613232  0.112914026  0.916595655
     0.287602642  0.684361310  0.623834063
     0.788383568  0.571298278  0.421049304
     0.787663957  0.184463136  0.624221750
     0.211501649  0.571379629  0.920487676
     0.176638174  0.612936807  0.915934087
     0.177253853  0.142831886  0.128345800
     0.323131456  0.112849383  0.415949457
     0.712276756  0.684342411  0.124188150
     0.288242316  0.071303938  0.420584335
     0.212191005  0.184362399  0.123782375
     0.322489735  0.642815072  0.628300006
     0.876805974  0.981866184  0.283388727
     0.877310974  0.773945466  0.762168386
     0.622904338  0.481791101  0.782806935
     0.622526667  0.274011133  0.262049330
     0.122475552  0.774004466  0.262211463
     0.376719478  0.481781630  0.282575087
     0.122938087  0.981787137  0.782920761
     0.377264992  0.273937037  0.761793443
     0.767244905  0.106813791  0.275106116
     0.767963300  0.648926438  0.770150171
     0.732572032  0.606734682  0.774836348
     0.731912649  0.149013399  0.270300591
     0.231949741  0.648988586  0.269672762
     0.267283297  0.606779619  0.274332300
     0.232434709  0.106751699  0.774391368
     0.267792823  0.148947607  0.769607004
     0.035213201  0.878036251  0.023336097
     0.964376487  0.877995530  0.523074723
     0.464369294  0.377982878  0.522785714
     0.535250761  0.377990337  0.022734582
     0.358344486  0.115815010  0.278039533
     0.795570693  0.540933294  0.286772954
     0.794804540  0.214821224  0.758552970
     0.704270123  0.041000858  0.787019137
     0.705195404  0.714691843  0.258621322
     0.642158628  0.639826678  0.266656498
     0.141451832  0.615913306  0.777998818
     0.142097636  0.139849786  0.266328226
     0.858488419  0.615800090  0.278528221
     0.205173934  0.214705009  0.258276480
     0.204280330  0.541026424  0.786151815
     0.294663205  0.714689451  0.758371833
     0.357626960  0.639803436  0.766273681
     0.641444467  0.115873524  0.778606378
     0.857761375  0.139946230  0.766729271
     0.295432538  0.040944649  0.286279851
     0.673843953  0.454585762  0.052628783
     0.326152471  0.301107177  0.492094578
     0.463534645  0.475467528  0.014301593
     0.035723422  0.780384986  0.530701150
     0.173760036  0.954629969  0.053081766
     0.464066109  0.280347441  0.030177283
     0.963617724  0.975531013  0.015062125
     0.826233861  0.801096851  0.492378770
     0.036039134  0.975519649  0.514894163
     0.535981790  0.475533431  0.514816765
     0.673461065  0.301180007  0.992078469
     0.825891092  0.954695400  0.553405339
     0.535758348  0.280359939  0.530426278
     0.325900502  0.454644217  0.552788023
     0.173487450  0.801192859  0.992439675
     0.964115324  0.780332067  0.030481491
     0.959708214  0.924430952  0.191758714
     0.915140590  0.917331059  0.357892554
     0.959892176  0.831543333  0.854392500
     0.539882562  0.424406976  0.691350879
     0.584374449  0.338617164  0.187947015
     0.084449713  0.838672841  0.188464886
     0.584494702  0.417273475  0.857338620
     0.539796863  0.331532977  0.354096334
     0.415182833  0.417299808  0.357371340
     0.039862667  0.831578151  0.354572121
     0.084421327  0.917319233  0.857781634
     0.415188497  0.338619541  0.688019284
     0.915261529  0.838615494  0.688310374
     0.039855801  0.924426236  0.691670868
     0.459820549  0.331541777  0.854057912
     0.459729739  0.424391478  0.191181745
     0.837672955  0.023176439  0.284593414
     0.838338130  0.732579944  0.760814431
     0.662095532  0.523090146  0.784074576
     0.661577364  0.232671743  0.260767172
     0.161502609  0.732646003  0.260674193
     0.337576843  0.523089180  0.283727518
     0.162115217  0.023085258  0.784027985
     0.338266986  0.232577865  0.760379645
     0.787365009  0.989927528  0.945042771
     0.888081786  0.056909749  0.623229833
     0.888744856  0.698919247  0.422101142
     0.611479443  0.556830710  0.122416293
     0.611262772  0.198999758  0.921944612
     0.211734135  0.765816642  0.600367019
     0.712443483  0.489859147  0.444542968
     0.711510340  0.265826933  0.600900525
     0.287240002  0.489883543  0.944134487
     0.111070487  0.699002985  0.921948551
     0.111386397  0.056872762  0.122164171
     0.388789407  0.198886370  0.421860410
     0.788321802  0.765744734  0.100804244
     0.212473596  0.989836393  0.444509711
     0.288189135  0.265772122  0.100210641
     0.388249372  0.556838926  0.621995289

  ion indices of the primitive-cell ions
   primitive index   ion index
                 1           1
                 2           2
                 3           3
                 4           4
                 5           5
                 6           6
                 7           7
                 8           8
                 9           9
                10          10
                11          11
                12          12
                13          13
                14          14
                15          15
                16          16
                17          17
                18          18
                19          19
                20          20
                21          21
                22          22
                23          23
                24          24
                25          25
                26          26
                27          27
                28          28
                29          29
                30          30
                31          31
                32          32
                33          33
                34          34
                35          35
                36          36
                37          37
                38          38
                39          39
                40          40
                41          41
                42          42
                43          43
                44          44
                45          45
                46          46
                47          47
                48          48
                49          49
                50          50
                51          51
                52          52
                53          53
                54          54
                55          55
                56          56
                57          57
                58          58
                59          59
                60          60
                61          61
                62          62
                63          63
                64          64
                65          65
                66          66
                67          67
                68          68
                69          69
                70          70
                71          71
                72          72
                73          73
                74          74
                75          75
                76          76
                77          77
                78          78
                79          79
                80          80
                81          81
                82          82
                83          83
                84          84
                85          85
                86          86
                87          87
                88          88
                89          89
                90          90
                91          91
                92          92
                93          93
                94          94
                95          95
                96          96
                97          97
                98          98
                99          99
               100         100
               101         101
               102         102
               103         103
               104         104
               105         105
               106         106
               107         107
               108         108
               109         109
               110         110
               111         111
               112         112
               113         113
               114         114
               115         115
               116         116
               117         117
               118         118
               119         119
               120         120
               121         121
               122         122
               123         123
               124         124
               125         125
               126         126
               127         127
               128         128
               129         129
               130         130
               131         131
               132         132
               133         133
               134         134
               135         135
               136         136
               137         137
               138         138
               139         139
               140         140
               141         141
               142         142
               143         143
               144         144
               145         145
               146         146
               147         147
               148         148
               149         149
               150         150
               151         151
               152         152
               153         153
               154         154
               155         155
               156         156

----------------------------------------------------------------------------------------

 
 

Automatic generation of k-mesh.
 generate k-points for:    2    1    4
Space group operators:
 irot       det(A)        alpha          n_x          n_y          n_z        tau_x        tau_y        tau_z
    1     1.000000     0.000000     1.000000     0.000000     0.000000     0.000000     0.000000     0.000000
 
 Subroutine IBZKPT returns following result:
 ===========================================
 
 Found      6 irreducible k-points:
 
 Following reciprocal coordinates:
            Coordinates               Weight
  0.000000  0.000000  0.000000      1.000000
  0.500000  0.000000 -0.000000      1.000000
  0.000000  0.000000  0.250000      2.000000
  0.500000  0.000000  0.250000      2.000000
  0.000000  0.000000  0.500000      1.000000
  0.500000  0.000000  0.500000      1.000000
 
 Following cartesian coordinates:
            Coordinates               Weight
  0.000000  0.000000  0.000000      1.000000
  0.028601 -0.000002 -0.000002      1.000000
  0.000003  0.005349  0.040481      2.000000
  0.028604  0.005348  0.040479      2.000000
  0.000007  0.010698  0.080962      1.000000
  0.028608  0.010697  0.080960      1.000000
 


--------------------------------------------------------------------------------------------------------




 Dimension of arrays:
   k-points           NKPTS =      6   k-points in BZ     NKDIM =      6   number of bands    NBANDS=    400
   number of dos      NEDOS =    301   number of ions     NIONS =    156
   non local maximal  LDIM  =      6   non local SUM 2l+1 LMDIM =     18
   total plane-waves  NPLWV = 829440
   max r-space proj   IRMAX =   2443   max aug-charges    IRDMAX=   7833
   dimension x,y,z NGX =   108 NGY =  192 NGZ =   40
   dimension x,y,z NGXF=   216 NGYF=  384 NGZF=   80
   support grid    NGXF=   216 NGYF=  384 NGZF=   80
   ions per type =              80   4  32  24  16
   NGX,Y,Z   is equivalent  to a cutoff of  10.27, 10.55, 10.51 a.u.
   NGXF,Y,Z  is equivalent  to a cutoff of  20.54, 21.10, 21.02 a.u.

 SYSTEM =  flex_MOF                                
 POSCAR =  Zn_H                                    

 Startparameter for this run:
   NWRITE =      2    write-flag & timer
   PREC   = normal    normal or accurate (medium, high low for compatibility)
   ISTART =      0    job   : 0-new  1-cont  2-samecut
   ICHARG =      2    charge: 1-file 2-atom 10-const
   ISPIN  =      1    spin polarized calculation?
   LNONCOLLINEAR =      F non collinear calculations
   LSORBIT =      F    spin-orbit coupling
   INIWAV =      1    electr: 0-lowe 1-rand  2-diag
   LASPH  =      F    aspherical Exc in radial PAW
   METAGGA=      F    non-selfconsistent MetaGGA calc.

 Electronic Relaxation 1
   ENCUT  =  600.0 eV  44.10 Ry    6.64 a.u.  34.92 60.43 12.64*2*pi/ulx,y,z
   ENINI  =  600.0     initial cutoff
   ENAUG  =  644.9 eV  augmentation charge cutoff
   NELM   =     80;   NELMIN=  4; NELMDL=-12     # of ELM steps 
   EDIFF  = 0.1E-05   stopping-criterion for ELM
   LREAL  =      T    real-space projection
   NLSPLINE    = F    spline interpolate recip. space projectors
   LCOMPAT=      F    compatible to vasp.4.4
   GGA_COMPAT  = T    GGA compatible to vasp.4.4-vasp.4.6
   LMAXPAW     = -100 max onsite density
   LMAXMIX     =    2 max onsite mixed and CHGCAR
   VOSKOWN=      0    Vosko Wilk Nusair interpolation
   ROPT   =   -0.00050  -0.00050  -0.00050  -0.00050
   ROPT   =   -0.00050
 Ionic relaxation
   EDIFFG = -.1E-01   stopping-criterion for IOM
   NSW    =   1000    number of steps for IOM
   NBLOCK =      1;   KBLOCK =   1000    inner block; outer block 
   IBRION =      2    ionic relax: 0-MD 1-quasi-New 2-CG
   NFREE  =      1    steps in history (QN), initial steepest desc. (CG)
   ISIF   =      4    stress and relaxation
   IWAVPR =     11    prediction:  0-non 1-charg 2-wave 3-comb
   ISYM   =      0    0-nonsym 1-usesym 2-fastsym
   LCORR  =      T    Harris-Foulkes like correction to forces

   POTIM  = 0.5000    time-step for ionic-motion
   TEIN   =    0.0    initial temperature
   TEBEG  =    0.0;   TEEND  =   0.0 temperature during run
   SMASS  =  -3.00    Nose mass-parameter (am)
   estimated Nose-frequenzy (Omega)   =  0.10E-29 period in steps = 0.13E+47 mass=  -0.698E-26a.u.
   SCALEE = 1.0000    scale energy and forces
   NPACO  =    256;   APACO  = 16.0  distance and # of slots for P.C.
   PSTRESS=    0.0 pullay stress

  Mass of Ions in am
   POMASS =  12.01 65.39  1.00 14.00 16.00
  Ionic Valenz
   ZVAL   =   4.00 12.00  1.00  5.00  6.00
  Atomic Wigner-Seitz radii
   RWIGS  =  -1.00 -1.00 -1.00 -1.00 -1.00
  virtual crystal weights 
   VCA    =   1.00  1.00  1.00  1.00  1.00
   NELECT =     616.0000    total number of electrons
   NUPDOWN=      -1.0000    fix difference up-down

 DOS related values:
   EMIN   =  10.00;   EMAX   =-10.00  energy-range for DOS
   EFERMI =   0.00
   ISMEAR =     0;   SIGMA  =   0.05  broadening in eV -4-tet -1-fermi 0-gaus

 Electronic relaxation 2 (details)
   IALGO  =     48    algorithm
   LDIAG  =      T    sub-space diagonalisation (order eigenvalues)
   LSUBROT=      F    optimize rotation matrix (better conditioning)
   TURBO    =      0    0=normal 1=particle mesh
   IRESTART =      0    0=no restart 2=restart with 2 vectors
   NREBOOT  =      0    no. of reboots
   NMIN     =      0    reboot dimension
   EREF     =   0.00    reference energy to select bands
   IMIX   =      4    mixing-type and parameters
     AMIX     =   0.40;   BMIX     =  1.00
     AMIX_MAG =   1.60;   BMIX_MAG =  1.00
     AMIN     =   0.10
     WC   =   100.;   INIMIX=   1;  MIXPRE=   1;  MAXMIX= -45

 Intra band minimization:
   WEIMIN = 0.0010     energy-eigenvalue tresh-hold
   EBREAK =  0.63E-09  absolut break condition
   DEPER  =   0.30     relativ break condition  

   TIME   =   0.40     timestep for ELM

  volume/ion in A,a.u.               =      20.76       140.09
  Fermi-wavevector in a.u.,A,eV,Ry     =   0.941501  1.779179 12.060529  0.886424
  Thomas-Fermi vector in A             =   2.069018
 
 Write flags
   LWAVE        =      T    write WAVECAR
   LDOWNSAMPLE  =      F    k-point downsampling of WAVECAR
   LCHARG       =      T    write CHGCAR
   LVTOT        =      F    write LOCPOT, total local potential
   LVHAR        =      F    write LOCPOT, Hartree potential only
   LELF         =      F    write electronic localiz. function (ELF)
   LORBIT       =      0    0 simple, 1 ext, 2 COOP (PROOUT), +10 PAW based schemes


 Dipole corrections
   LMONO  =      F    monopole corrections only (constant potential shift)
   LDIPOL =      F    correct potential (dipole corrections)
   IDIPOL =      0    1-x, 2-y, 3-z, 4-all directions 
   EPSILON=  1.0000000 bulk dielectric constant

 Exchange correlation treatment:
   GGA     =    PE    GGA type
   LEXCH   =     8    internal setting for exchange type
   VOSKOWN=      0    Vosko Wilk Nusair interpolation
   LHFCALC =     F    Hartree Fock is set to
   LHFONE  =     F    Hartree Fock one center treatment
   AEXX    =    0.0000 exact exchange contribution

 Linear response parameters
   LEPSILON=     F    determine dielectric tensor
   LRPA    =     F    only Hartree local field effects (RPA)
   LNABLA  =     F    use nabla operator in PAW spheres
   LVEL    =     F    velocity operator in full k-point grid
   LINTERFAST=   F  fast interpolation
   KINTER  =     0    interpolate to denser k-point grid
   CSHIFT  =0.1000    complex shift for real part using Kramers Kronig
   OMEGAMAX=  -1.0    maximum frequency
   DEG_THRESHOLD= 0.2000000E-02 threshold for treating states as degnerate
   RTIME   =   -0.100 relaxation time in fs
  (WPLASMAI=    0.000 imaginary part of plasma frequency in eV, 0.658/RTIME)
   DFIELD  = 0.0000000 0.0000000 0.0000000 field for delta impulse in time
 
 Orbital magnetization related:
   ORBITALMAG=     F  switch on orbital magnetization
   LCHIMAG   =     F  perturbation theory with respect to B field
   DQ        =  0.001000  dq finite difference perturbation B field
   LLRAUG    =     F  two centre corrections for induced B field



--------------------------------------------------------------------------------------------------------


 conjugate gradient relaxation of ions
 charge density and potential will be updated during run
 non-spin polarized calculation
 RMM-DIIS sequential band-by-band
 perform sub-space diagonalisation
    before iterative eigenvector-optimisation
 modified Broyden-mixing scheme, WC =      100.0
 initial mixing is a Kerker type mixing with AMIX =  0.4000 and BMIX =      1.0000
 Hartree-type preconditioning will be used
 using additional bands           92
 real space projection scheme for non local part
 use partial core corrections
 calculate Harris-corrections to forces 
   (improved forces if not selfconsistent)
 use gradient corrections 
 use of overlap-Matrix (Vanderbilt PP)
 Gauss-broadening in eV      SIGMA  =   0.05


--------------------------------------------------------------------------------------------------------


  energy-cutoff  :      600.00
  volume of cell :     3238.49
      direct lattice vectors                 reciprocal lattice vectors
    17.482086905 -0.001593335 -0.001260390     0.057201408 -0.000003124 -0.000003728
     0.001379745 29.995911276 -3.963662774     0.000003393  0.033895335  0.004218687
     0.000366498 -0.781496653  6.278988819     0.000013624  0.021396705  0.161924392

  length of vectors
    17.482087023 30.256657413  6.327435321     0.057201408  0.034156859  0.163331956


 
 k-points in units of 2pi/SCALE and weight: read from INCAR                         
   0.00000000  0.00000000  0.00000000       0.125
   0.02860070 -0.00000156 -0.00000186       0.125
   0.00000341  0.00534918  0.04048110       0.250
   0.02860411  0.00534761  0.04047923       0.250
   0.00000681  0.01069835  0.08096220       0.125
   0.02860752  0.01069679  0.08096033       0.125
 
 k-points in reciprocal lattice and weights: read from INCAR                         
   0.00000000  0.00000000  0.00000000       0.125
   0.50000000  0.00000000 -0.00000000       0.125
   0.00000000  0.00000000  0.25000000       0.250
   0.50000000  0.00000000  0.25000000       0.250
   0.00000000  0.00000000  0.50000000       0.125
   0.50000000  0.00000000  0.50000000       0.125
 
 position of ions in fractional coordinates (direct lattice) 
   0.93693510  0.96319365  0.14404252
   0.86497772  0.95214667  0.41733799
   0.93734706  0.79269972  0.90170616
   0.56270011  0.46316321  0.64364235
   0.63442429  0.30374888  0.12824473
   0.13443435  0.80377275  0.12859298
   0.63472276  0.45205571  0.91666969
   0.56246459  0.29272710  0.40156034
   0.36496537  0.45208947  0.41668332
   0.06245442  0.79274120  0.40184180
   0.13468211  0.95208956  0.91701617
   0.36522783  0.30369962  0.62820654
   0.86529287  0.80370087  0.62852684
   0.06273406  0.96315298  0.64377258
   0.43729330  0.29269448  0.90135320
   0.43687965  0.46312448  0.14331243
   0.79381061  0.02409356  0.09752942
   0.84934490  0.06075978  0.46683062
   0.85004626  0.69502354  0.57849810
   0.65035901  0.56067824  0.96627874
   0.64991591  0.19511148  0.07843381
   0.20533068  0.73167918  0.44771283
   0.70598762  0.52401421  0.59708929
   0.70526141  0.23170599  0.44809201
   0.29374474  0.52404046  0.09665757
   0.14981743  0.69510317  0.07824611
   0.15029980  0.06069781  0.96605119
   0.34998639  0.19501561  0.57810223
   0.79462498  0.73161424  0.94806750
   0.20596573  0.02400574  0.59693996
   0.29450228  0.23162920  0.94754275
   0.34937471  0.56068441  0.46584804
   0.75656135  0.06811317  0.09756686
   0.81250228  0.10434572  0.45730303
   0.81323617  0.65141877  0.58798582
   0.68729546  0.60425552  0.95698061
   0.68667607  0.15150000  0.08806801
   0.24259293  0.68764925  0.44744394
   0.74324654  0.56804353  0.59723990
   0.74257288  0.18769985  0.44791115
   0.25659489  0.56809584  0.09670293
   0.18668621  0.65150139  0.08752155
   0.18720554  0.10427512  0.95663697
   0.31308343  0.15143007  0.58745752
   0.75733623  0.68759789  0.94785231
   0.24313472  0.06805045  0.59684308
   0.25719889  0.18761853  0.94734648
   0.31250532  0.60427394  0.45652853
   0.71145722  0.07136253  0.92130754
   0.82255509  0.14292422  0.62883616
   0.82327943  0.61284203  0.41645042
   0.67732943  0.64280966  0.12868983
   0.67661323  0.11291403  0.91659565
   0.28760264  0.68436131  0.62383406
   0.78838357  0.57129828  0.42104930
   0.78766396  0.18446314  0.62422175
   0.21150165  0.57137963  0.92048768
   0.17663817  0.61293681  0.91593409
   0.17725385  0.14283189  0.12834580
   0.32313146  0.11284938  0.41594946
   0.71227676  0.68434241  0.12418815
   0.28824232  0.07130394  0.42058433
   0.21219101  0.18436240  0.12378238
   0.32248973  0.64281507  0.62830001
   0.87680597  0.98186618  0.28338873
   0.87731097  0.77394547  0.76216839
   0.62290434  0.48179110  0.78280694
   0.62252667  0.27401113  0.26204933
   0.12247555  0.77400447  0.26221146
   0.37671948  0.48178163  0.28257509
   0.12293809  0.98178714  0.78292076
   0.37726499  0.27393704  0.76179344
   0.76724491  0.10681379  0.27510612
   0.76796330  0.64892644  0.77015017
   0.73257203  0.60673468  0.77483635
   0.73191265  0.14901340  0.27030059
   0.23194974  0.64898859  0.26967276
   0.26728330  0.60677962  0.27433230
   0.23243471  0.10675170  0.77439137
   0.26779282  0.14894761  0.76960700
   0.03521320  0.87803625  0.02333610
   0.96437649  0.87799553  0.52307472
   0.46436929  0.37798288  0.52278571
   0.53525076  0.37799034  0.02273458
   0.35834449  0.11581501  0.27803953
   0.79557069  0.54093329  0.28677295
   0.79480454  0.21482122  0.75855297
   0.70427012  0.04100086  0.78701914
   0.70519540  0.71469184  0.25862132
   0.64215863  0.63982668  0.26665650
   0.14145183  0.61591331  0.77799882
   0.14209764  0.13984979  0.26632823
   0.85848842  0.61580009  0.27852822
   0.20517393  0.21470501  0.25827648
   0.20428033  0.54102642  0.78615181
   0.29466321  0.71468945  0.75837183
   0.35762696  0.63980344  0.76627368
   0.64144447  0.11587352  0.77860638
   0.85776138  0.13994623  0.76672927
   0.29543254  0.04094465  0.28627985
   0.67384395  0.45458576  0.05262878
   0.32615247  0.30110718  0.49209458
   0.46353465  0.47546753  0.01430159
   0.03572342  0.78038499  0.53070115
   0.17376004  0.95462997  0.05308177
   0.46406611  0.28034744  0.03017728
   0.96361772  0.97553101  0.01506212
   0.82623386  0.80109685  0.49237877
   0.03603913  0.97551965  0.51489416
   0.53598179  0.47553343  0.51481676
   0.67346106  0.30118001  0.99207847
   0.82589109  0.95469540  0.55340534
   0.53575835  0.28035994  0.53042628
   0.32590050  0.45464422  0.55278802
   0.17348745  0.80119286  0.99243968
   0.96411532  0.78033207  0.03048149
   0.95970821  0.92443095  0.19175871
   0.91514059  0.91733106  0.35789255
   0.95989218  0.83154333  0.85439250
   0.53988256  0.42440698  0.69135088
   0.58437445  0.33861716  0.18794701
   0.08444971  0.83867284  0.18846489
   0.58449470  0.41727348  0.85733862
   0.53979686  0.33153298  0.35409633
   0.41518283  0.41729981  0.35737134
   0.03986267  0.83157815  0.35457212
   0.08442133  0.91731923  0.85778163
   0.41518850  0.33861954  0.68801928
   0.91526153  0.83861549  0.68831037
   0.03985580  0.92442624  0.69167087
   0.45982055  0.33154178  0.85405791
   0.45972974  0.42439148  0.19118174
   0.83767295  0.02317644  0.28459341
   0.83833813  0.73257994  0.76081443
   0.66209553  0.52309015  0.78407458
   0.66157736  0.23267174  0.26076717
   0.16150261  0.73264600  0.26067419
   0.33757684  0.52308918  0.28372752
   0.16211522  0.02308526  0.78402799
   0.33826699  0.23257787  0.76037965
   0.78736501  0.98992753  0.94504277
   0.88808179  0.05690975  0.62322983
   0.88874486  0.69891925  0.42210114
   0.61147944  0.55683071  0.12241629
   0.61126277  0.19899976  0.92194461
   0.21173413  0.76581664  0.60036702
   0.71244348  0.48985915  0.44454297
   0.71151034  0.26582693  0.60090053
   0.28724000  0.48988354  0.94413449
   0.11107049  0.69900299  0.92194855
   0.11138640  0.05687276  0.12216417
   0.38878941  0.19888637  0.42186041
   0.78832180  0.76574473  0.10080424
   0.21247360  0.98983639  0.44450971
   0.28818913  0.26577212  0.10021064
   0.38824937  0.55683893  0.62199529
 
 position of ions in cartesian coordinates  (Angst):
  16.38096251 28.77780965 -2.91451433
  15.12308243 28.23298062 -1.15461794
  16.38820691 23.07157648  2.51862711
   9.83804709 13.38910161  2.20489113
  11.09152659  9.00999072 -0.39951053
   2.35134903 24.00918695 -2.37861968
  11.09723811 12.84243736  3.96316233
   9.83360596  8.46590174  1.36041248
   6.38113274 13.23461748  0.82395972
   1.09307461 23.46485722 -0.61907736
   2.35617413 27.84193437  1.98400256
   6.38559396  8.61822370  2.74027862
  15.12846444 23.61516960  0.75982319
   1.09828708 28.38744539  0.22454815
   7.64553363  8.07453639  4.49889326
   7.63825953 13.77914656 -0.93636276
  13.87753504  0.64522462  0.51588690
  14.84857633  1.45636518  2.68932247
  14.86175352 20.39441564  0.87647280
  11.37076046 16.06187505  3.84409419
  11.36218442  5.79021546 -0.28169027
   3.59078234 21.59717066 -0.08920451
  12.34307882 15.25053561  1.67121155
  12.32992517  6.59892631  1.89427141
   5.13602947 15.64306567 -1.47057811
   2.62010912 20.78886529 -2.26403695
   2.62799191  1.06548087  5.82504951
   6.11897339  5.39732822  2.85648020
  13.89305985 21.20325829  3.05203157
   3.60096266  0.25323929  3.65276910
   5.14918136  6.20695827  5.03113911
   6.10874334 16.45362442  0.70225039
  13.22640101  1.96566289  0.34169006
  14.20454701  2.77126965  2.45678528
  14.21817971 19.07909493  1.10892709
  12.01654335 17.37622284  3.61293917
  12.00477212  4.47446168 -0.04838235
   4.24214343 20.27660353  0.08358001
  12.99450327 16.57105813  1.49759286
  12.98214678  5.27900380  2.06751426
   4.48663337 16.96457066 -1.64486713
   3.26459553 19.47368278 -2.03302027
   3.27323795  2.37992038  5.59316546
   5.47377589  4.08268793  3.08802686
  13.24111381 19.88317509  3.22519337
   4.25081495  1.57441690  3.47753557
   4.49697940  4.88703092  5.20439723
   5.46424616 17.76847398  0.47100556
  12.43819304  1.41945191  5.50112600
  14.38040715  3.79439816  3.38091510
  14.39364072 18.05598874  0.18475073
  11.84206599 19.18001178 -1.74069245
  11.82910305  2.66956459  5.30688795
   5.02906726 20.04005865  1.20410717
  13.78353261 16.80630768  0.37833648
  13.77049303  5.04405765  3.18733896
   3.69861592 16.41935763  3.51470909
   3.08918529 17.66951722  3.32144245
   3.09901138  4.18378834  0.23952101
   5.64932035  3.05944210  2.16403782
  12.45307388 20.42928671 -1.93362428
   5.03932974  1.80968208  2.35785627
   3.70984133  5.43304455  0.04621033
   5.63891076 18.79029567  1.39678008
  15.32985682 29.22910654 -2.11349691
  15.33857386 22.61816964  1.71688219
  10.89061941 13.83900964  3.00479344
  10.88353940  8.01343108  0.55853246
   2.14229227 23.01185677 -1.42162421
   6.58661096 14.23004729 -0.13580891
   2.15085588 28.83755402  1.02432263
   6.59603654  7.62105091  3.69702297
  13.41329031  2.98776002  1.30304735
  13.42677877 18.86204646  2.26267081
  12.80800905 17.59286043  2.45937377
  12.79566521  4.25738750  1.10565303
   4.05595980 19.25588610 -0.87939199
   4.67360757 17.98609198 -0.68287722
   4.06387488  2.59655990  4.43897404
   4.68206498  3.86594723  4.24163816
   0.61682026 26.31920430 -3.33375689
  16.86071667 25.92595831 -0.19691335
   8.11885748 10.92864568  1.78378370
   9.35783018 11.31954477 -1.35615066
   6.26487114  3.25611884  1.28630382
  13.90908744 16.00040737 -0.34443572
  13.89541645  5.84968539  3.91046496
  12.31245650  0.61368313  4.77828313
  12.32936821 21.23459781 -1.20980589
  11.22725346 18.98276993 -0.86253339
   2.47400816 17.86665204  2.44359495
   2.48445379  3.98656075  1.11777547
  15.00912087 18.25244814 -0.69303034
   3.58725944  6.23810329  0.77043828
   3.57228108 15.61388011  2.79153469
   5.15259179 20.84462682  1.92864890
   6.25322920 18.59207696  2.27500807
  11.21423315  2.86623164  4.42876870
  14.99593300  3.59725163  4.25850375
   5.16493871  1.00397458  1.63488484
  11.78084504 13.59351132 -1.47221843
   5.70242165  8.64689424  1.89595796
   8.10421422 14.25016657 -1.79537763
   0.62579120 22.99356071  0.23903864
   3.03902466 28.59323577 -3.45075046
   8.11324191  8.38495411 -0.92230480
  16.84740031 29.24863535 -3.77331558
  14.44557793 23.64352124 -0.08467835
   0.63157395 28.85915534 -0.63366165
   9.37092503 13.86087702  1.34699901
  11.77428401  8.25778971  5.03462481
  14.43981990 28.20315818 -0.31030563
   9.36675523  7.99427184  2.21861315
   5.69825079 13.20494633  1.66848270
   3.03439185 23.25664521  3.05564065
  16.85583570 23.38141411 -2.90279539
  16.77904816 27.57776089 -2.46129134
  15.99996417 27.23503109 -1.38994106
  16.78237889 24.27366574  2.06755376
   9.43911281 12.18932537  2.65809784
  10.21662098 10.00931935 -0.16278358
   1.47758345 25.00933688 -2.14095384
  10.21907712 11.84555959  3.72855158
   9.43736287  9.66704857  0.90860165
   7.25896911 12.23734199  0.58937164
   0.69815993 24.66678398 -1.06979122
   1.47744101 26.84533832  1.74995079
   7.25908076  9.61885541  2.97736842
  16.00209094 24.61566537  0.99675054
   0.69829154 27.18840540  0.67882955
   8.03939325  9.27672168  4.04792073
   8.03769087 12.57986873 -0.48229611
  14.64440767  0.47145492  1.69403948
  14.65718965 21.37849333  1.87238882
  11.57582071 15.07675901  2.84900806
  11.56616957  6.77435817  0.71428798
   2.82450904 21.77241118 -1.26739490
   5.90237341 15.46826665 -0.29225268
   2.83443150  0.07948980  4.83119645
   5.91421243  6.38161190  3.85212872
  13.76649571 28.95397600  2.00918172
  15.52582989  1.21859273  3.68656277
  15.53823384 20.63343303 -0.12103202
  10.69074992 16.60600235 -1.43920933
  10.68676136  5.24770851  4.99934155
   3.70283121 22.50184586  0.73399202
  12.45583769 14.34522752  0.84874590
  12.43927259  7.50298566  2.71850258
   5.02257662 13.95620767  3.98611469
   1.94304624 20.24655484  3.01815254
   1.94738992  1.61030195  0.54150262
   6.79727923  5.63547592  1.86004827
  13.78260372 22.88917685 -2.40319877
   3.71601050 29.34332323 -1.13257396
   5.03855092  7.89330353 -0.42457280
   6.78840551 16.21618517  1.69789040
 


--------------------------------------------------------------------------------------------------------


 k-point  1 :   0.0000 0.0000 0.0000  plane waves:  108129
 k-point  2 :   0.5000 0.0000-0.0000  plane waves:  108206
 k-point  3 :   0.0000 0.0000 0.2500  plane waves:  108106
 k-point  4 :   0.5000 0.0000 0.2500  plane waves:  108079
 k-point  5 :   0.0000 0.0000 0.5000  plane waves:  108060
 k-point  6 :   0.5000 0.0000 0.5000  plane waves:  108006

 maximum and minimum number of plane-waves per node :     27092    26974

 maximum number of plane-waves:    108206
 maximum index in each direction: 
   IXMAX=   34   IYMAX=   60   IZMAX=   12
   IXMIN=  -35   IYMIN=  -60   IZMIN=  -13


 real space projection operators:
  total allocation   :      13025.48 KBytes
  max/ min on nodes  :       3257.28       3255.33


 parallel 3D FFT for wavefunctions:
    minimum data exchange during FFTs selected (reduces bandwidth)
 parallel 3D FFT for charge:
    minimum data exchange during FFTs selected (reduces bandwidth)


 total amount of memory used by VASP MPI-rank0   131639. kBytes
=======================================================================

   base      :      30000. kBytes
   nonlr-proj:       6609. kBytes
   fftplans  :      10433. kBytes
   grid      :      18404. kBytes
   one-center:        606. kBytes
   wavefun   :      65587. kBytes
 
     INWAV:  cpu time    0.0003: real time    0.0003
 Broyden mixing: mesh for mixing (old mesh)
   NGX = 69   NGY =121   NGZ = 25
  (NGX  =216   NGY  =384   NGZ  = 80)
  gives a total of 208725 points

 initial charge density was supplied:
 charge density of overlapping atoms calculated
 number of electron     616.0000000 magnetization 
 keeping initial charge density in first step


--------------------------------------------------------------------------------------------------------


 Maximum index for non-local projection operator          599
 Maximum index for augmentation-charges          276 (set IRDMAX)


--------------------------------------------------------------------------------------------------------


 First call to EWALD:  gamma=   0.120
 Maximum number of real-space cells 2x 2x 6
 Maximum number of reciprocal cells 3x 5x 1

    FEWALD:  cpu time    0.0160: real time    0.0160


--------------------------------------- Iteration      1(   1)  ---------------------------------------


    POTLOK:  cpu time    0.1541: real time    1.5793
    SETDIJ:  cpu time    0.0317: real time    0.0320
    EDDIAG:  cpu time    4.7310: real time    4.7798
  RMM-DIIS:  cpu time    6.2630: real time    6.2734
    ORTHCH:  cpu time    1.0553: real time    1.0570
       DOS:  cpu time    0.0043: real time    0.0045
    --------------------------------------------
      LOOP:  cpu time   12.2396: real time   13.7262

 eigenvalue-minimisations  :  2400
 total energy-change (2. order) : 0.7801280E+04  (-0.2323445E+05)
 number of electron     616.0000000 magnetization 
 augmentation part      616.0000000 magnetization 

 Free energy of the ion-electron system (eV)
  ---------------------------------------------------
  alpha Z        PSCENC =       596.54418188
  Ewald energy   TEWEN  =     29497.76411128
  -Hartree energ DENC   =    -56991.39811164
  -exchange      EXHF   =         0.00000000
  -V(xc)+E(xc)   XCENC  =      2272.63685784
  PAW double counting   =     25034.14638475   -25847.60581054
  entropy T*S    EENTRO =        -0.11541692
  eigenvalues    EBANDS =       805.62804190
  atomic energy  EATOM  =     32433.67991533
  Solvation  Ediel_sol  =         0.00000000
  ---------------------------------------------------
  free energy    TOTEN  =      7801.28015388 eV

  energy without entropy =     7801.39557080  energy(sigma->0) =     7801.33786234


--------------------------------------------------------------------------------------------------------




--------------------------------------- Iteration      1(   2)  ---------------------------------------


    EDDIAG:  cpu time    4.6587: real time    4.6656
  RMM-DIIS:  cpu time    6.2036: real time    6.2128
    ORTHCH:  cpu time    1.0529: real time    1.0542
       DOS:  cpu time    0.0039: real time    0.0039
    --------------------------------------------
      LOOP:  cpu time   11.9191: real time   11.9366

 eigenvalue-minimisations  :  2400
 total energy-change (2. order) :-0.4896841E+04  (-0.6759973E+04)
 number of electron     616.0000000 magnetization 
 augmentation part      616.0000000 magnetization 

 Free energy of the ion-electron system (eV)
  ---------------------------------------------------
  alpha Z        PSCENC =       596.54418188
  Ewald energy   TEWEN  =     29497.76411128
  -Hartree energ DENC   =    -56991.39811164
  -exchange      EXHF   =         0.00000000
  -V(xc)+E(xc)   XCENC  =      2272.63685784
  PAW double counting   =     25034.14638475   -25847.60581054
  entropy T*S    EENTRO =        -0.06974816
  eigenvalues    EBANDS =     -4091.25888186
  atomic energy  EATOM  =     32433.67991533
  Solvation  Ediel_sol  =         0.00000000
  ---------------------------------------------------
  free energy    TOTEN  =      2904.43889888 eV

  energy without entropy =     2904.50864704  energy(sigma->0) =     2904.47377296


--------------------------------------------------------------------------------------------------------




--------------------------------------- Iteration      1(   3)  ---------------------------------------


    EDDIAG:  cpu time    4.6637: real time    4.6937
  RMM-DIIS:  cpu time    6.2066: real time    6.2161
    ORTHCH:  cpu time    1.0521: real time    1.0536
       DOS:  cpu time    0.0036: real time    0.0036
    --------------------------------------------
      LOOP:  cpu time   11.9260: real time   11.9670

 eigenvalue-minimisations  :  2400
 total energy-change (2. order) :-0.2115052E+04  (-0.2829227E+04)
 number of electron     616.0000000 magnetization 
 augmentation part      616.0000000 magnetization 

 Free energy of the ion-electron system (eV)
  ---------------------------------------------------
  alpha Z        PSCENC =       596.54418188
  Ewald energy   TEWEN  =     29497.76411128
  -Hartree energ DENC   =    -56991.39811164
  -exchange      EXHF   =         0.00000000
  -V(xc)+E(xc)   XCENC  =      2272.63685784
  PAW double counting   =     25034.14638475   -25847.60581054
  entropy T*S    EENTRO =        -0.04708653
  eigenvalues    EBANDS =     -6206.33319628
  atomic energy  EATOM  =     32433.67991533
  Solvation  Ediel_sol  =         0.00000000
  ---------------------------------------------------
  free energy    TOTEN  =       789.38724609 eV

  energy without entropy =      789.43433262  energy(sigma->0) =      789.41078936


--------------------------------------------------------------------------------------------------------




--------------------------------------- Iteration      1(   4)  ---------------------------------------


    EDDIAG:  cpu time    4.6531: real time    4.6601
  RMM-DIIS:  cpu time    6.2051: real time    6.2145
    ORTHCH:  cpu time    1.0520: real time    1.0535
       DOS:  cpu time    0.0029: real time    0.0029
    --------------------------------------------
      LOOP:  cpu time   11.9131: real time   11.9309

 eigenvalue-minimisations  :  2400
 total energy-change (2. order) :-0.1277408E+04  (-0.1266975E+04)
 number of electron     616.0000000 magnetization 
 augmentation part      616.0000000 magnetization 

 Free energy of the ion-electron system (eV)
  ---------------------------------------------------
  alpha Z        PSCENC =       596.54418188
  Ewald energy   TEWEN  =     29497.76411128
  -Hartree energ DENC   =    -56991.39811164
  -exchange      EXHF   =         0.00000000
  -V(xc)+E(xc)   XCENC  =      2272.63685784
  PAW double counting   =     25034.14638475   -25847.60581054
  entropy T*S    EENTRO =        -0.01756699
  eigenvalues    EBANDS =     -7483.77034222
  atomic energy  EATOM  =     32433.67991533
  Solvation  Ediel_sol  =         0.00000000
  ---------------------------------------------------
  free energy    TOTEN  =      -488.02038031 eV

  energy without entropy =     -488.00281332  energy(sigma->0) =     -488.01159681


--------------------------------------------------------------------------------------------------------




--------------------------------------- Iteration      1(   5)  ---------------------------------------


    EDDIAG:  cpu time    4.6667: real time    4.6734
  RMM-DIIS:  cpu time    6.2063: real time    6.2161
    ORTHCH:  cpu time    1.0538: real time    1.0560
       DOS:  cpu time    0.0030: real time    0.0030
    --------------------------------------------
      LOOP:  cpu time   11.9297: real time   11.9485

 eigenvalue-minimisations  :  2400
 total energy-change (2. order) :-0.4981914E+03  (-0.4440588E+03)
 number of electron     616.0000000 magnetization 
 augmentation part      616.0000000 magnetization 

 Free energy of the ion-electron system (eV)
  ---------------------------------------------------
  alpha Z        PSCENC =       596.54418188
  Ewald energy   TEWEN  =     29497.76411128
  -Hartree energ DENC   =    -56991.39811164
  -exchange      EXHF   =         0.00000000
  -V(xc)+E(xc)   XCENC  =      2272.63685784
  PAW double counting   =     25034.14638475   -25847.60581054
  entropy T*S    EENTRO =        -0.01461613
  eigenvalues    EBANDS =     -7981.96469219
  atomic energy  EATOM  =     32433.67991533
  Solvation  Ediel_sol  =         0.00000000
  ---------------------------------------------------
  free energy    TOTEN  =      -986.21177942 eV

  energy without entropy =     -986.19716329  energy(sigma->0) =     -986.20447135


--------------------------------------------------------------------------------------------------------




--------------------------------------- Iteration      1(   6)  ---------------------------------------


    EDDIAG:  cpu time    4.6539: real time    4.6613
  RMM-DIIS:  cpu time    6.2090: real time    6.2184
    ORTHCH:  cpu time    1.0539: real time    1.0553
       DOS:  cpu time    0.0013: real time    0.0013
    --------------------------------------------
      LOOP:  cpu time   11.9181: real time   11.9364

 eigenvalue-minimisations  :  2400
 total energy-change (2. order) :-0.1678608E+03  (-0.1465453E+03)
 number of electron     616.0000000 magnetization 
 augmentation part      616.0000000 magnetization 

 Free energy of the ion-electron system (eV)
  ---------------------------------------------------
  alpha Z        PSCENC =       596.54418188
  Ewald energy   TEWEN  =     29497.76411128
  -Hartree energ DENC   =    -56991.39811164
  -exchange      EXHF   =         0.00000000
  -V(xc)+E(xc)   XCENC  =      2272.63685784
  PAW double counting   =     25034.14638475   -25847.60581054
  entropy T*S    EENTRO =        -0.00000000
  eigenvalues    EBANDS =     -8149.84015212
  atomic energy  EATOM  =     32433.67991533
  Solvation  Ediel_sol  =         0.00000000
  ---------------------------------------------------
  free energy    TOTEN  =     -1154.07262321 eV

  energy without entropy =    -1154.07262321  energy(sigma->0) =    -1154.07262321


--------------------------------------------------------------------------------------------------------




--------------------------------------- Iteration      1(   7)  ---------------------------------------


    EDDIAG:  cpu time    4.6577: real time    4.6709
  RMM-DIIS:  cpu time    6.2038: real time    6.2132
    ORTHCH:  cpu time    1.0565: real time    1.0575
       DOS:  cpu time    0.0018: real time    0.0018
    --------------------------------------------
      LOOP:  cpu time   11.9198: real time   11.9434

 eigenvalue-minimisations  :  2400
 total energy-change (2. order) :-0.5328858E+02  (-0.4932181E+02)
 number of electron     616.0000000 magnetization 
 augmentation part      616.0000000 magnetization 

 Free energy of the ion-electron system (eV)
  ---------------------------------------------------
  alpha Z        PSCENC =       596.54418188
  Ewald energy   TEWEN  =     29497.76411128
  -Hartree energ DENC   =    -56991.39811164
  -exchange      EXHF   =         0.00000000
  -V(xc)+E(xc)   XCENC  =      2272.63685784
  PAW double counting   =     25034.14638475   -25847.60581054
  entropy T*S    EENTRO =        -0.00000000
  eigenvalues    EBANDS =     -8203.12872999
  atomic energy  EATOM  =     32433.67991533
  Solvation  Ediel_sol  =         0.00000000
  ---------------------------------------------------
  free energy    TOTEN  =     -1207.36120109 eV

  energy without entropy =    -1207.36120109  energy(sigma->0) =    -1207.36120109


--------------------------------------------------------------------------------------------------------




--------------------------------------- Iteration      1(   8)  ---------------------------------------


    EDDIAG:  cpu time    4.6494: real time    4.6844
  RMM-DIIS:  cpu time    6.2036: real time    6.2126
    ORTHCH:  cpu time    1.0538: real time    1.0553
       DOS:  cpu time    0.0016: real time    0.0016
    --------------------------------------------
      LOOP:  cpu time   11.9084: real time   11.9539

 eigenvalue-minimisations  :  2400
 total energy-change (2. order) :-0.1976742E+02  (-0.1747439E+02)
 number of electron     616.0000000 magnetization 
 augmentation part      616.0000000 magnetization 

 Free energy of the ion-electron system (eV)
  ---------------------------------------------------
  alpha Z        PSCENC =       596.54418188
  Ewald energy   TEWEN  =     29497.76411128
  -Hartree energ DENC   =    -56991.39811164
  -exchange      EXHF   =         0.00000000
  -V(xc)+E(xc)   XCENC  =      2272.63685784
  PAW double counting   =     25034.14638475   -25847.60581054
  entropy T*S    EENTRO =        -0.00000000
  eigenvalues    EBANDS =     -8222.89614850
  atomic energy  EATOM  =     32433.67991533
  Solvation  Ediel_sol  =         0.00000000
  ---------------------------------------------------
  free energy    TOTEN  =     -1227.12861960 eV

  energy without entropy =    -1227.12861960  energy(sigma->0) =    -1227.12861960


--------------------------------------------------------------------------------------------------------




--------------------------------------- Iteration      1(   9)  ---------------------------------------


[...]
   -.659E+02 0.982E+02 -.484E+02   0.472E+02 -.860E+02 0.586E+02   0.188E+02 -.122E+02 -.102E+02   -.627E-05 0.259E-04 0.998E-05
   0.364E+03 0.250E+02 -.550E+02   -.366E+03 -.452E+02 0.667E+02   0.186E+01 0.202E+02 -.118E+02   0.271E-05 -.249E-04 0.323E-05
   -.665E+02 0.981E+02 -.486E+02   0.478E+02 -.859E+02 0.588E+02   0.188E+02 -.122E+02 -.102E+02   -.672E-05 0.252E-04 0.106E-04
   -.364E+03 0.252E+02 -.549E+02   0.366E+03 -.454E+02 0.666E+02   -.185E+01 0.202E+02 -.118E+02   -.175E-05 -.255E-04 0.306E-05
   0.366E+03 -.262E+02 0.544E+02   -.368E+03 0.464E+02 -.660E+02   0.197E+01 -.203E+02 0.117E+02   0.264E-05 0.227E-04 -.278E-05
   0.365E+03 -.260E+02 0.543E+02   -.367E+03 0.462E+02 -.659E+02   0.196E+01 -.203E+02 0.117E+02   0.285E-05 0.254E-04 -.434E-05
   -.654E+02 -.996E+02 0.480E+02   0.466E+02 0.875E+02 -.581E+02   0.189E+02 0.121E+02 0.101E+02   -.714E-05 -.271E-04 -.118E-04
   0.665E+02 0.980E+02 -.485E+02   -.477E+02 -.858E+02 0.587E+02   -.188E+02 -.122E+02 -.102E+02   0.688E-05 0.243E-04 0.112E-04
   0.659E+02 -.996E+02 0.480E+02   -.471E+02 0.875E+02 -.582E+02   -.189E+02 0.122E+02 0.102E+02   0.683E-05 -.270E-04 -.110E-04
   0.166E+03 -.290E+02 -.102E+02   -.167E+03 0.292E+02 0.106E+02   0.115E+01 -.156E+00 -.416E+00   0.351E-04 -.925E-04 0.158E-05
   0.166E+03 0.295E+02 0.105E+02   -.168E+03 -.297E+02 -.109E+02   0.116E+01 0.159E+00 0.434E+00   0.362E-04 0.925E-04 -.941E-06
   -.166E+03 -.291E+02 -.102E+02   0.167E+03 0.292E+02 0.107E+02   -.117E+01 -.147E+00 -.431E+00   -.357E-04 -.916E-04 0.243E-05
   -.167E+03 0.292E+02 0.105E+02   0.168E+03 -.294E+02 -.109E+02   -.118E+01 0.148E+00 0.434E+00   -.363E-04 0.933E-04 -.926E-06
   -.166E+03 0.295E+02 0.104E+02   0.167E+03 -.297E+02 -.108E+02   -.114E+01 0.165E+00 0.422E+00   -.365E-04 0.928E-04 -.199E-05
   0.166E+03 -.288E+02 -.103E+02   -.167E+03 0.290E+02 0.107E+02   0.119E+01 -.133E+00 -.436E+00   0.368E-04 -.931E-04 0.274E-05
   -.166E+03 -.287E+02 -.103E+02   0.168E+03 0.288E+02 0.107E+02   -.119E+01 -.132E+00 -.443E+00   -.337E-04 -.910E-04 0.541E-06
   0.166E+03 0.296E+02 0.105E+02   -.167E+03 -.298E+02 -.109E+02   0.116E+01 0.159E+00 0.435E+00   0.379E-04 0.941E-04 -.206E-05
   0.412E+03 0.260E+03 0.201E+03   -.417E+03 -.300E+03 -.237E+03   0.485E+01 0.402E+02 0.362E+02   -.152E-04 -.129E-03 -.473E-04
   -.144E+03 -.148E+03 -.255E+03   0.175E+03 0.137E+03 0.299E+03   -.301E+02 0.107E+02 -.443E+02   0.342E-04 -.319E-04 0.602E-04
   -.143E+03 0.148E+03 0.254E+03   0.173E+03 -.137E+03 -.299E+03   -.301E+02 -.108E+02 0.443E+02   0.359E-04 0.327E-04 -.600E-04
   0.145E+03 -.149E+03 -.255E+03   -.175E+03 0.138E+03 0.299E+03   0.302E+02 0.107E+02 -.442E+02   -.352E-04 -.318E-04 0.595E-04
   0.143E+03 0.148E+03 0.254E+03   -.173E+03 -.137E+03 -.299E+03   0.301E+02 -.108E+02 0.443E+02   -.355E-04 0.340E-04 -.587E-04
   -.413E+03 -.259E+03 -.201E+03   0.418E+03 0.299E+03 0.237E+03   -.482E+01 -.402E+02 -.363E+02   0.123E-04 0.129E-03 0.479E-04
   -.412E+03 0.260E+03 0.201E+03   0.417E+03 -.300E+03 -.237E+03   -.485E+01 0.402E+02 0.363E+02   0.146E-04 -.129E-03 -.485E-04
   -.412E+03 -.258E+03 -.201E+03   0.417E+03 0.299E+03 0.237E+03   -.469E+01 -.401E+02 -.363E+02   0.115E-04 0.128E-03 0.457E-04
   0.413E+03 0.260E+03 0.201E+03   -.418E+03 -.300E+03 -.237E+03   0.490E+01 0.402E+02 0.362E+02   -.149E-04 -.130E-03 -.474E-04
   0.143E+03 0.148E+03 0.254E+03   -.173E+03 -.137E+03 -.299E+03   0.301E+02 -.108E+02 0.443E+02   -.353E-04 0.327E-04 -.593E-04
   0.145E+03 -.149E+03 -.255E+03   -.175E+03 0.138E+03 0.299E+03   0.303E+02 0.107E+02 -.442E+02   -.343E-04 -.307E-04 0.588E-04
   -.144E+03 0.148E+03 0.254E+03   0.174E+03 -.138E+03 -.299E+03   -.302E+02 -.108E+02 0.443E+02   0.365E-04 0.333E-04 -.595E-04
   0.412E+03 -.258E+03 -.201E+03   -.417E+03 0.298E+03 0.237E+03   0.472E+01 -.401E+02 -.363E+02   -.124E-04 0.128E-03 0.469E-04
   -.413E+03 0.260E+03 0.201E+03   0.418E+03 -.300E+03 -.237E+03   -.490E+01 0.402E+02 0.362E+02   0.145E-04 -.127E-03 -.451E-04
   0.413E+03 -.258E+03 -.201E+03   -.417E+03 0.299E+03 0.237E+03   0.473E+01 -.402E+02 -.363E+02   -.127E-04 0.130E-03 0.473E-04
   -.145E+03 -.149E+03 -.255E+03   0.175E+03 0.138E+03 0.299E+03   -.303E+02 0.107E+02 -.442E+02   0.346E-04 -.324E-04 0.587E-04
 -----------------------------------------------------------------------------------------------
   -.104E+00 0.275E+00 0.352E+00   -.313E-12 0.853E-13 0.171E-12   0.110E+00 -.263E+00 -.369E+00   0.377E-05 -.224E-04 -.566E-05
 
 
 POSITION                                       TOTAL-FORCE (eV/Angst)
 -----------------------------------------------------------------------------------
     16.38096     28.77781     -2.91451         0.001020     -0.000873      0.001345
     15.12308     28.23298     -1.15462         0.000983     -0.001592      0.001135
     16.38821     23.07158      2.51863         0.000119     -0.000444     -0.001807
      9.83805     13.38910      2.20489         0.001270     -0.000189      0.001764
     11.09153      9.00999     -0.39951        -0.000365      0.000766      0.001865
      2.35135     24.00919     -2.37862        -0.000253      0.000565     -0.001181
     11.09724     12.84244      3.96316         0.000152      0.000504     -0.000207
      9.83361      8.46590      1.36041        -0.000901     -0.000249     -0.000753
      6.38113     13.23462      0.82396         0.000618     -0.000696      0.000058
      1.09307     23.46486     -0.61908        -0.000646     -0.000809      0.000381
      2.35617     27.84193      1.98400        -0.000040     -0.001992      0.000204
      6.38559      8.61822      2.74028         0.001210      0.001321     -0.001629
     15.12846     23.61517      0.75982         0.000293      0.001058     -0.000076
      1.09829     28.38745      0.22455        -0.000609      0.000110      0.001007
      7.64553      8.07454      4.49889         0.000435      0.000580     -0.002116
      7.63826     13.77915     -0.93636         0.000653      0.001297      0.000090
     13.87754      0.64522      0.51589        -0.001046     -0.002746     -0.001820
     14.84858      1.45637      2.68932        -0.000752      0.000399      0.002616
     14.86175     20.39442      0.87647         0.001529      0.000783     -0.002270
     11.37076     16.06188      3.84409        -0.000186     -0.002242      0.000966
     11.36218      5.79022     -0.28169        -0.001346     -0.002746     -0.000622
      3.59078     21.59717     -0.08920         0.002468      0.000499      0.004890
     12.34308     15.25054      1.67121         0.000572     -0.002240     -0.004258
     12.32993      6.59893      1.89427        -0.001191      0.003156      0.000784
      5.13603     15.64307     -1.47058        -0.001260     -0.003255     -0.005394
      2.62011     20.78887     -2.26404        -0.001129      0.001949     -0.001168
      2.62799      1.06548      5.82505         0.000342     -0.000756      0.000029
      6.11897      5.39733      2.85648         0.001481      0.001199     -0.001195
     13.89306     21.20326      3.05203         0.000158      0.001717      0.001217
      3.60096      0.25324      3.65277         0.000171      0.000064     -0.002105
      5.14918      6.20696      5.03114         0.000105      0.003028      0.002263
      6.10874     16.45362      0.70225        -0.000344     -0.001920     -0.000036
     13.22640      1.96566      0.34169         0.000765      0.003224      0.000346
     14.20455      2.77127      2.45679        -0.000112     -0.001298     -0.000564
     14.21818     19.07909      1.10893         0.000269     -0.002039     -0.000093
     12.01654     17.37622      3.61294        -0.000468     -0.000426      0.001263
     12.00477      4.47446     -0.04838        -0.001875      0.001334      0.000456
      4.24214     20.27660      0.08358        -0.002803     -0.000378     -0.000597
     12.99450     16.57106      1.49759        -0.000995      0.000271     -0.000012
     12.98215      5.27900      2.06751        -0.001479     -0.000971      0.000205
      4.48663     16.96457     -1.64487         0.001106      0.000156      0.001241
      3.26460     19.47368     -2.03302        -0.000549      0.000620      0.002821
      3.27324      2.37992      5.59317         0.000344     -0.001211     -0.000922
      5.47378      4.08269      3.08803         0.001204     -0.000598      0.002030
     13.24111     19.88318      3.22519         0.001206     -0.000073      0.001724
      4.25081      1.57442      3.47754        -0.002327     -0.000407      0.002680
      4.49698      4.88703      5.20440         0.002350      0.000638      0.000274
      5.46425     17.76847      0.47101         0.000158     -0.000662     -0.000427
     12.43819      1.41945      5.50113         0.000027      0.000496     -0.000230
     14.38041      3.79440      3.38092        -0.000307     -0.001612      0.000016
     14.39364     18.05599      0.18475         0.000426     -0.000233     -0.000526
     11.84207     19.18001     -1.74069         0.000039      0.001262      0.001846
     11.82910      2.66956      5.30689         0.000088     -0.000168     -0.000546
      5.02907     20.04006      1.20411        -0.003180      0.002734     -0.002472
     13.78353     16.80631      0.37834        -0.000608     -0.000549      0.000933
     13.77049      5.04406      3.18734        -0.001330     -0.000483     -0.001111
      3.69862     16.41936      3.51471        -0.000553     -0.001190     -0.001081
      3.08919     17.66952      3.32144        -0.000217     -0.002489     -0.001185
      3.09901      4.18379      0.23952         0.001491      0.000615     -0.000420
      5.64932      3.05944      2.16404         0.000619     -0.000174     -0.001276
     12.45307     20.42929     -1.93362         0.000188      0.000726      0.000173
      5.03933      1.80968      2.35786        -0.001224      0.000493      0.002087
      3.70984      5.43304      0.04621         0.001616      0.001319     -0.001261
      5.63891     18.79030      1.39678        -0.000207      0.000177      0.001127
     15.32986     29.22911     -2.11350        -0.003012     -0.000458      0.004761
     15.33857     22.61817      1.71688        -0.000785     -0.001359     -0.002586
     10.89062     13.83901      3.00479         0.003464      0.001048      0.003099
     10.88354      8.01343      0.55853         0.001802     -0.001597     -0.000865
      2.14229     23.01186     -1.42162         0.002662      0.001252     -0.003649
      6.58661     14.23005     -0.13581        -0.000321      0.000879      0.000365
      2.15086     28.83755      1.02432         0.001508      0.001306      0.001840
      6.59604      7.62105      3.69702        -0.002186     -0.000638     -0.003998
     13.41329      2.98776      1.30305         0.000822      0.001752      0.000838
     13.42678     18.86205      2.26267         0.000472     -0.001822     -0.000744
     12.80801     17.59286      2.45937         0.000814      0.000707     -0.001957
     12.79567      4.25739      1.10565        -0.001522     -0.001073     -0.000970
      4.05596     19.25589     -0.87939        -0.001252     -0.000483      0.001112
      4.67361     17.98609     -0.68288         0.000177      0.000716      0.000563
      4.06387      2.59656      4.43897         0.001755     -0.001288     -0.001740
      4.68206      3.86595      4.24164         0.002106     -0.002421      0.001415
      0.61682     26.31920     -3.33376         0.003462     -0.000075     -0.001173
     16.86072     25.92596     -0.19691         0.000013      0.000679      0.001484
      8.11886     10.92865      1.78378        -0.001155      0.000396     -0.000856
      9.35783     11.31954     -1.35615        -0.001903     -0.000738      0.001441
      6.26487      3.25612      1.28630        -0.001606     -0.002327     -0.000787
     13.90909     16.00041     -0.34444        -0.000030     -0.000452     -0.000175
     13.89542      5.84969      3.91046        -0.000663      0.001468     -0.000852
     12.31246      0.61368      4.77828         0.000206     -0.001961      0.000418
     12.32937     21.23460     -1.20981         0.000082     -0.000935     -0.002172
     11.22725     18.98277     -0.86253         0.001258      0.001175     -0.000376
      2.47401     17.86665      2.44359         0.000206     -0.000899     -0.001387
      2.48445      3.98656      1.11778         0.001303      0.000579      0.001820
     15.00912     18.25245     -0.69303        -0.001041     -0.000035     -0.001789
      3.58726      6.23810      0.77044        -0.001526      0.000613     -0.002092
      3.57228     15.61388      2.79153         0.001294      0.000122      0.001646
      5.15259     20.84463      1.92865         0.000897      0.002284     -0.001586
      6.25323     18.59208      2.27501        -0.000992      0.001591      0.001256
     11.21423      2.86623      4.42877         0.000158     -0.000322     -0.002413
     14.99593      3.59725      4.25850        -0.001470      0.001332      0.002669
      5.16494      1.00397      1.63488         0.000049     -0.001983      0.001721
     11.78085     13.59351     -1.47222        -0.000185     -0.001432      0.000048
      5.70242      8.64689      1.89596         0.000328      0.000859      0.001321
      8.10421     14.25017     -1.79538         0.002205      0.001020     -0.000419
      0.62579     22.99356      0.23904        -0.001015     -0.002504      0.001585
      3.03902     28.59324     -3.45075         0.000778     -0.000488     -0.000537
      8.11324      8.38495     -0.92230         0.000917     -0.002321      0.002095
     16.84740     29.24864     -3.77332         0.002059      0.002932     -0.001562
     14.44558     23.64352     -0.08468        -0.000477      0.001473      0.000174
      0.63157     28.85916     -0.63366        -0.000683      0.000469     -0.002071
      9.37093     13.86088      1.34700        -0.001461      0.002684     -0.002503
     11.77428      8.25779      5.03462         0.001298     -0.001103      0.000590
     14.43982     28.20316     -0.31031         0.001966      0.000036     -0.002007
      9.36676      7.99427      2.21861        -0.001662     -0.000059      0.002043
      5.69825     13.20495      1.66848        -0.000089     -0.000547     -0.000442
      3.03439     23.25665      3.05564        -0.000761      0.000947      0.001444
     16.85584     23.38141     -2.90280         0.001350      0.000067      0.002211
     16.77905     27.57776     -2.46129        -0.000128     -0.000758      0.001351
     15.99996     27.23503     -1.38994         0.001633      0.001589     -0.002357
     16.78238     24.27367      2.06755        -0.000822     -0.000084     -0.002551
      9.43911     12.18933      2.65810         0.000471     -0.002317      0.002610
     10.21662     10.00932     -0.16278        -0.001389     -0.000098      0.001732
      1.47758     25.00934     -2.14095        -0.002706     -0.001098     -0.001199
     10.21908     11.84556      3.72855        -0.002788      0.000471     -0.002173
      9.43736      9.66705      0.90860         0.000300      0.000348     -0.002293
      7.25897     12.23734      0.58937         0.001538      0.000172      0.000453
      0.69816     24.66678     -1.06979        -0.000508      0.000656     -0.004665
      1.47744     26.84534      1.74995         0.000896      0.001019      0.000811
      7.25908      9.61886      2.97737         0.000722     -0.000263     -0.002847
     16.00209     24.61567      0.99675         0.000875     -0.001092      0.001898
      0.69829     27.18841      0.67883         0.000836      0.001354      0.002409
      8.03939      9.27672      4.04792         0.002573     -0.000101     -0.001321
      8.03769     12.57987     -0.48230        -0.000984      0.001364      0.002975
     14.64441      0.47145      1.69404        -0.003008      0.001627      0.000600
     14.65719     21.37849      1.87239        -0.000792      0.001175      0.001702
     11.57582     15.07676      2.84901         0.000325      0.001406      0.001857
     11.56617      6.77436      0.71429         0.000669      0.000626      0.001555
      2.82451     21.77241     -1.26739         0.000577     -0.001676     -0.001219
      5.90237     15.46827     -0.29225        -0.001319      0.003245      0.002643
      2.83443      0.07949      4.83120        -0.000066      0.000188      0.000517
      5.91421      6.38161      3.85213        -0.000853     -0.000161      0.000664
     13.76650     28.95398      2.00918         0.000747      0.004580      0.001326
     15.52583      1.21859      3.68656        -0.001178     -0.000075     -0.000726
     15.53823     20.63343     -0.12103         0.000129     -0.002827     -0.000301
     10.69075     16.60600     -1.43921         0.001215      0.000626      0.000575
     10.68676      5.24771      4.99934        -0.000773     -0.002733     -0.000321
      3.70283     22.50185      0.73399        -0.000242     -0.001393     -0.000266
     12.45584     14.34523      0.84875        -0.002389      0.004785      0.002264
     12.43927      7.50299      2.71850        -0.000842     -0.000196     -0.003889
      5.02258     13.95621      3.98611         0.002865      0.006110      0.003394
      1.94305     20.24655      3.01815         0.000915     -0.000858      0.000998
      1.94739      1.61030      0.54150         0.000626     -0.000511      0.003054
      6.79728      5.63548      1.86005         0.000473     -0.001500     -0.002826
     13.78260     22.88918     -2.40320         0.000289     -0.004072     -0.003222
      3.71601     29.34332     -1.13257        -0.003924      0.001605      0.000872
      5.03855      7.89330     -0.42457        -0.000038     -0.004427     -0.002555
      6.78841     16.21619      1.69789        -0.000716     -0.001123      0.001745
 -----------------------------------------------------------------------------------
    total drift:                                0.005387      0.011203     -0.017534


--------------------------------------------------------------------------------------------------------



  FREE ENERGIE OF THE ION-ELECTRON SYSTEM (eV)
  ---------------------------------------------------
  free  energy   TOTEN  =     -1161.91043495 eV

  energy  without entropy=    -1161.91043495  energy(sigma->0) =    -1161.91043495
 


--------------------------------------------------------------------------------------------------------


    POTLOK:  cpu time    0.1595: real time    0.1599


--------------------------------------------------------------------------------------------------------




--------------------------------------------------------------------------------------------------------


  
 reached required accuracy - stopping structural energy minimisation
 writing wavefunctions
     LOOP+:  cpu time  647.6044: real time  660.6422
    4ORBIT:  cpu time    0.0000: real time    0.0000

 total amount of memory used by VASP MPI-rank0   131639. kBytes
=======================================================================

   base      :      30000. kBytes
   nonlr-proj:       6609. kBytes
   fftplans  :      10433. kBytes
   grid      :      18404. kBytes
   one-center:        606. kBytes
   wavefun   :      65587. kBytes
 
  
  
 General timing and accounting informations for this job:
 ========================================================
  
                  Total CPU time used (sec):      747.489
                            User time (sec):      682.882
                          System time (sec):       64.607
                         Elapsed time (sec):      786.890
  
                   Maximum memory used (kb):      975880.
                   Average memory used (kb):           0.
  
                          Minor page faults:       423233
                          Major page faults:            3
                 Voluntary context switches:        14055
