       N       E                     dE             d eps       ncg     rms          rms(c)
RMM:   1     0.588246238294E+04    0.58825E+04   -0.27477E+05  2800   0.141E+03
RMM:   2     0.198840862746E+04   -0.38941E+04   -0.66811E+04  2800   0.324E+02
RMM:   3    -0.257525373980E+02   -0.20142E+04   -0.23173E+04  2800   0.176E+02
RMM:   4    -0.827203831973E+03   -0.80145E+03   -0.75618E+03  2800   0.128E+02
RMM:   5    -0.109340546050E+04   -0.26620E+03   -0.23607E+03  2800   0.719E+01
RMM:   6    -0.118136705920E+04   -0.87962E+02   -0.77366E+02  2800   0.455E+01
RMM:   7    -0.121285373252E+04   -0.31487E+02   -0.28106E+02  2800   0.268E+01
RMM:   8    -0.122452350738E+04   -0.11670E+02   -0.10354E+02  2800   0.187E+01
RMM:   9    -0.123284314152E+04   -0.83196E+01   -0.78157E+01  7376   0.110E+01
RMM:  10    -0.123302458559E+04   -0.18144E+00   -0.26042E+00  6879   0.195E+00
RMM:  11    -0.123304353880E+04   -0.18953E-01   -0.19795E-01  7200   0.545E-01
RMM:  12    -0.123304430870E+04   -0.76990E-03   -0.10092E-02  7128   0.101E-01    0.576E+01
RMM:  13    -0.116323710132E+04    0.69807E+02   -0.15179E+02  5600   0.161E+01    0.320E+01
RMM:  14    -0.114973550178E+04    0.13502E+02   -0.41201E+01  5600   0.843E+00    0.149E+01
RMM:  15    -0.114875241166E+04    0.98309E+00   -0.94124E+00  5600   0.437E+00    0.494E+00
RMM:  16    -0.114864261925E+04    0.10979E+00   -0.67751E-01  5706   0.139E+00    0.132E+00
RMM:  17    -0.114865440309E+04   -0.11784E-01   -0.14983E-01  5660   0.655E-01    0.412E-01
RMM:  18    -0.114865545199E+04   -0.10489E-02   -0.15110E-02  5647   0.212E-01    0.200E-01
RMM:  19    -0.114865728662E+04   -0.18346E-02   -0.52417E-03  5672   0.103E-01    0.902E-02
RMM:  20    -0.114865705877E+04    0.22785E-03   -0.14566E-03  5607   0.571E-02    0.546E-02
RMM:  21    -0.114865675855E+04    0.30021E-03   -0.43364E-04  5600   0.332E-02    0.163E-02
RMM:  22    -0.114865670082E+04    0.57732E-04   -0.96249E-05  5639   0.122E-02    0.126E-02
RMM:  23    -0.114865666457E+04    0.36257E-04   -0.47273E-05  5575   0.907E-03    0.448E-03
RMM:  24    -0.114865666434E+04    0.22483E-06   -0.50176E-06  4191   0.303E-03
   1 F= -.11633318E+04 E0= -.11633318E+04  d E =-.116333E+04
