 vasp.6.0.8 29Jun18 (build Mar 14 2019 11:44:20) complex                        
  
 executed on             LinuxIFC date 2021.01.06  20:04:12
 running   64 mpi-ranks, with    1 threads/rank
 distrk:  each k-point on   64 cores,    1 groups
 distr:  one band on NCORES_PER_BAND=   4 cores,   16 groups


--------------------------------------------------------------------------------------------------------


 INCAR:
 POTCAR:    PAW_PBE C 08Apr2002                   
 POTCAR:    PAW_PBE Zn 06Sep2000                  
 POTCAR:    PAW_PBE H 15Jun2001                   
 POTCAR:    PAW_PBE N 08Apr2002                   
 POTCAR:    PAW_PBE O 08Apr2002                   
 POTCAR:    PAW_PBE C 08Apr2002                   
   VRHFIN =C: s2p2                                                              
   LEXCH  = PE                                                                  
   EATOM  =   147.1560 eV,   10.8157 Ry                                         
                                                                                
   TITEL  = PAW_PBE C 08Apr2002                                                 
   LULTRA =        F    use ultrasoft PP ?                                      
   IUNSCR =        1    unscreen: 0-lin 1-nonlin 2-no                           
   RPACOR =    1.200    partial core radius                                     
   POMASS =   12.011; ZVAL   =    4.000    mass and valenz                      
   RCORE  =    1.500    outmost cutoff radius                                   
   RWIGS  =    1.630; RWIGS  =    0.863    wigner-seitz radius (au A)           
   ENMAX  =  400.000; ENMIN  =  300.000 eV                                      
   ICORE  =        2    local potential                                         
   LCOR   =        T    correct aug charges                                     
   LPAW   =        T    paw PP                                                  
   EAUG   =  644.873                                                            
   DEXC   =    0.000                                                            
   RMAX   =    1.529    core radius for proj-oper                               
   RAUG   =    1.300    factor for augmentation sphere                          
   RDEP   =    1.501    radius for radial grids                                 
   RDEPT  =    1.300    core radius for aug-charge                              
                                                                                
   Atomic configuration                                                         
    4 entries                                                                   
     n  l   j            E        occ.                                          
     1  0  0.50      -273.3789   2.0000                                         
     2  0  0.50       -13.7508   2.0000                                         
     2  1  0.50        -5.2854   2.0000                                         
     3  2  1.50        -5.4423   0.0000                                         
   Description                                                                  
     l       E           TYP  RCUT    TYP  RCUT                                 
     0    -13.7508458     23  1.200                                             
     0     -8.2022199     23  1.200                                             
     1     -5.2854383     23  1.500                                             
     1     34.0145650     23  1.500                                             
     2     -5.4423304      7  1.500                                             
  local pseudopotential read in
  partial core-charges read in
  partial kinetic energy density read in
  atomic valenz-charges read in
  non local Contribution for L=           0  read in
    real space projection operators read in
  non local Contribution for L=           0  read in
    real space projection operators read in
  non local Contribution for L=           1  read in
    real space projection operators read in
  non local Contribution for L=           1  read in
    real space projection operators read in
    PAW grid and wavefunctions read in
 
   number of l-projection  operators is LMAX  =           4
   number of lm-projection operators is LMMAX =           8
 
 POTCAR:    PAW_PBE Zn 06Sep2000                  
   VRHFIN =Zn: d10 p2                                                           
   LEXCH  = PE                                                                  
   EATOM  =  1748.8345 eV,  128.5357 Ry                                         
                                                                                
   TITEL  = PAW_PBE Zn 06Sep2000                                                
   LULTRA =        F    use ultrasoft PP ?                                      
   IUNSCR =        1    unscreen: 0-lin 1-nonlin 2-no                           
   RPACOR =    2.000    partial core radius                                     
   POMASS =   65.390; ZVAL   =   12.000    mass and valenz                      
   RCORE  =    2.300    outmost cutoff radius                                   
   RWIGS  =    2.400; RWIGS  =    1.270    wigner-seitz radius (au A)           
   ENMAX  =  276.723; ENMIN  =  207.542 eV                                      
   RCLOC  =    1.828    cutoff for local pot                                    
   LCOR   =        T    correct aug charges                                     
   LPAW   =        T    paw PP                                                  
   EAUG   =  575.892                                                            
   DEXC   =    0.000                                                            
   RMAX   =    2.347    core radius for proj-oper                               
   RAUG   =    1.300    factor for augmentation sphere                          
   RDEP   =    2.324    radius for radial grids                                 
   RDEPT  =    1.788    core radius for aug-charge                              
                                                                                
   Atomic configuration                                                         
    9 entries                                                                   
     n  l   j            E        occ.                                          
     1  0  0.50     -9524.6913   2.0000                                         
     2  0  0.50     -1158.1882   2.0000                                         
     2  1  1.50     -1003.8506   6.0000                                         
     3  0  0.50      -129.2194   2.0000                                         
     3  1  1.50       -83.3890   6.0000                                         
     3  2  2.50       -10.1410  10.0000                                         
     4  0  0.50        -5.9785   2.0000                                         
     4  1  0.50        -4.0817   0.0000                                         
     4  3  2.50        -1.3606   0.0000                                         
   Description                                                                  
     l       E           TYP  RCUT    TYP  RCUT                                 
     2    -10.1410010     23  2.300                                             
     2    -11.5015836     23  2.300                                             
     0     -5.9785163     23  2.300                                             
     0      1.1858015     23  2.300                                             
     1     -2.7211652     23  2.300                                             
     1     13.2444212     23  2.300                                             
  local pseudopotential read in
  partial core-charges read in
  partial kinetic energy density read in
  atomic valenz-charges read in
  non local Contribution for L=           2  read in
    real space projection operators read in
  non local Contribution for L=           2  read in
    real space projection operators read in
  non local Contribution for L=           0  read in
    real space projection operators read in
  non local Contribution for L=           0  read in
    real space projection operators read in
  non local Contribution for L=           1  read in
    real space projection operators read in
  non local Contribution for L=           1  read in
    real space projection operators read in
    PAW grid and wavefunctions read in
 
   number of l-projection  operators is LMAX  =           6
   number of lm-projection operators is LMMAX =          18
 
 POTCAR:    PAW_PBE H 15Jun2001                   
   VRHFIN =H: ultrasoft test                                                    
   LEXCH  = PE                                                                  
   EATOM  =    12.4884 eV,    0.9179 Ry                                         
                                                                                
   TITEL  = PAW_PBE H 15Jun2001                                                 
   LULTRA =        F    use ultrasoft PP ?                                      
   IUNSCR =        0    unscreen: 0-lin 1-nonlin 2-no                           
   RPACOR =    0.000    partial core radius                                     
   POMASS =    1.000; ZVAL   =    1.000    mass and valenz                      
   RCORE  =    1.100    outmost cutoff radius                                   
   RWIGS  =    0.700; RWIGS  =    0.370    wigner-seitz radius (au A)           
   ENMAX  =  250.000; ENMIN  =  200.000 eV                                      
   RCLOC  =    0.701    cutoff for local pot                                    
   LCOR   =        T    correct aug charges                                     
   LPAW   =        T    paw PP                                                  
   EAUG   =  400.000                                                            
   RMAX   =    1.123    core radius for proj-oper                               
   RAUG   =    1.200    factor for augmentation sphere                          
   RDEP   =    1.112    radius for radial grids                                 
   RDEPT  =    0.926    core radius for aug-charge                              
                                                                                
   Atomic configuration                                                         
    2 entries                                                                   
     n  l   j            E        occ.                                          
     1  0  0.50        -6.4927   1.0000                                         
     2  1  0.50        -3.4015   0.0000                                         
   Description                                                                  
     l       E           TYP  RCUT    TYP  RCUT                                 
     0     -6.4927494     23  1.100                                             
     0      6.8029130     23  1.100                                             
     1     -4.0817478     23  1.100                                             
  local pseudopotential read in
  atomic valenz-charges read in
  non local Contribution for L=           0  read in
    real space projection operators read in
  non local Contribution for L=           0  read in
    real space projection operators read in
  non local Contribution for L=           1  read in
    real space projection operators read in
    PAW grid and wavefunctions read in
 
   number of l-projection  operators is LMAX  =           3
   number of lm-projection operators is LMMAX =           5
 
 POTCAR:    PAW_PBE N 08Apr2002                   
   VRHFIN =N: s2p3                                                              
   LEXCH  = PE                                                                  
   EATOM  =   264.5486 eV,   19.4438 Ry                                         
                                                                                
   TITEL  = PAW_PBE N 08Apr2002                                                 
   LULTRA =        F    use ultrasoft PP ?                                      
   IUNSCR =        1    unscreen: 0-lin 1-nonlin 2-no                           
   RPACOR =    1.200    partial core radius                                     
   POMASS =   14.001; ZVAL   =    5.000    mass and valenz                      
   RCORE  =    1.500    outmost cutoff radius                                   
   RWIGS  =    1.400; RWIGS  =    0.741    wigner-seitz radius (au A)           
   ENMAX  =  400.000; ENMIN  =  300.000 eV                                      
   ICORE  =        2    local potential                                         
   LCOR   =        T    correct aug charges                                     
   LPAW   =        T    paw PP                                                  
   EAUG   =  627.112                                                            
   DEXC   =    0.000                                                            
   RMAX   =    1.529    core radius for proj-oper                               
   RAUG   =    1.300    factor for augmentation sphere                          
   RDEP   =    1.514    radius for radial grids                                 
   RDEPT  =    1.338    core radius for aug-charge                              
                                                                                
   Atomic configuration                                                         
    4 entries                                                                   
     n  l   j            E        occ.                                          
     1  0  0.50      -384.7179   2.0000                                         
     2  0  0.50       -18.5828   2.0000                                         
     2  1  0.50        -7.0898   3.0000                                         
     3  2  1.50        -6.8029   0.0000                                         
   Description                                                                  
     l       E           TYP  RCUT    TYP  RCUT                                 
     0    -18.5828119     23  1.200                                             
     0    -13.5018863     23  1.200                                             
     1     -7.0897853     23  1.500                                             
     1      9.5240782     23  1.500                                             
     2     -6.8029130      7  1.500                                             
  local pseudopotential read in
  partial core-charges read in
  partial kinetic energy density read in
  atomic valenz-charges read in
  non local Contribution for L=           0  read in
    real space projection operators read in
  non local Contribution for L=           0  read in
    real space projection operators read in
  non local Contribution for L=           1  read in
    real space projection operators read in
  non local Contribution for L=           1  read in
    real space projection operators read in
    PAW grid and wavefunctions read in
 
   number of l-projection  operators is LMAX  =           4
   number of lm-projection operators is LMMAX =           8
 
 POTCAR:    PAW_PBE O 08Apr2002                   
   VRHFIN =O: s2p4                                                              
   LEXCH  = PE                                                                  
   EATOM  =   432.3788 eV,   31.7789 Ry                                         
                                                                                
   TITEL  = PAW_PBE O 08Apr2002                                                 
   LULTRA =        F    use ultrasoft PP ?                                      
   IUNSCR =        1    unscreen: 0-lin 1-nonlin 2-no                           
   RPACOR =    1.200    partial core radius                                     
   POMASS =   16.000; ZVAL   =    6.000    mass and valenz                      
   RCORE  =    1.520    outmost cutoff radius                                   
   RWIGS  =    1.550; RWIGS  =    0.820    wigner-seitz radius (au A)           
   ENMAX  =  400.000; ENMIN  =  300.000 eV                                      
   ICORE  =        2    local potential                                         
   LCOR   =        T    correct aug charges                                     
   LPAW   =        T    paw PP                                                  
   EAUG   =  605.392                                                            
   DEXC   =    0.000                                                            
   RMAX   =    1.553    core radius for proj-oper                               
   RAUG   =    1.300    factor for augmentation sphere                          
   RDEP   =    1.550    radius for radial grids                                 
   RDEPT  =    1.329    core radius for aug-charge                              
                                                                                
   Atomic configuration                                                         
    4 entries                                                                   
     n  l   j            E        occ.                                          
     1  0  0.50      -514.6923   2.0000                                         
     2  0  0.50       -23.9615   2.0000                                         
     2  1  0.50        -9.0305   4.0000                                         
     3  2  1.50        -9.5241   0.0000                                         
   Description                                                                  
     l       E           TYP  RCUT    TYP  RCUT                                 
     0    -23.9615318     23  1.200                                             
     0     -9.5240782     23  1.200                                             
     1     -9.0304911     23  1.520                                             
     1      8.1634956     23  1.520                                             
     2     -9.5240782      7  1.500                                             
  local pseudopotential read in
  partial core-charges read in
  partial kinetic energy density read in
  kinetic energy density of atom read in
  atomic valenz-charges read in
  non local Contribution for L=           0  read in
    real space projection operators read in
  non local Contribution for L=           0  read in
    real space projection operators read in
  non local Contribution for L=           1  read in
    real space projection operators read in
  non local Contribution for L=           1  read in
    real space projection operators read in
    PAW grid and wavefunctions read in
 
   number of l-projection  operators is LMAX  =           4
   number of lm-projection operators is LMMAX =           8
 
 Optimization of the real space projectors (new method)

 maximal supplied QI-value         = 25.13
 optimisation between [QCUT,QGAM] = [ 12.32, 24.88] = [ 42.47,173.37] Ry 
 Optimized for a Real-space Cutoff    1.06 Angstroem

   l    n(q)    QCUT    max X(q) W(low)/X(q) W(high)/X(q)  e(spline) 
   0      8    12.315   115.676    0.34E-03    0.18E-03    0.23E-06
   0      8    12.315    87.132    0.34E-03    0.18E-03    0.22E-06
   1      7    12.315     4.429    0.45E-03    0.12E-03    0.18E-06
   1      7    12.315     2.733    0.35E-03    0.97E-04    0.15E-06
 Optimization of the real space projectors (new method)

 maximal supplied QI-value         = 16.25
 optimisation between [QCUT,QGAM] = [ 12.51, 25.03] = [ 43.85,175.40] Ry 
 Optimized for a Real-space Cutoff    1.31 Angstroem

   l    n(q)    QCUT    max X(q) W(low)/X(q) W(high)/X(q)  e(spline) 
   2      9    12.514    46.356    0.36E-03    0.54E-03    0.48E-06
   2      9    12.514    41.843    0.37E-03    0.56E-03    0.49E-06
   0     10    12.514    48.958    0.13E-03    0.28E-03    0.23E-06
   0     10    12.514    32.776    0.12E-03    0.26E-03    0.22E-06
   1      9    12.514    17.787    0.44E-03    0.44E-04    0.36E-06
   1      9    12.514    14.435    0.39E-03    0.39E-04    0.32E-06
 Optimization of the real space projectors (new method)

 maximal supplied QI-value         = 34.20
 optimisation between [QCUT,QGAM] = [ 12.31, 24.97] = [ 42.46,174.58] Ry 
 Optimized for a Real-space Cutoff    1.00 Angstroem

   l    n(q)    QCUT    max X(q) W(low)/X(q) W(high)/X(q)  e(spline) 
   0      7    12.313    19.460    0.14E-03    0.42E-03    0.16E-06
   0      7    12.313    12.209    0.12E-03    0.40E-03    0.16E-06
   1      7    12.313     4.655    0.33E-03    0.59E-03    0.89E-07
 Optimization of the real space projectors (new method)

 maximal supplied QI-value         = 25.13
 optimisation between [QCUT,QGAM] = [ 12.32, 24.88] = [ 42.47,173.37] Ry 
 Optimized for a Real-space Cutoff    1.20 Angstroem

   l    n(q)    QCUT    max X(q) W(low)/X(q) W(high)/X(q)  e(spline) 
   0      9    12.315    79.467    0.14E-03    0.22E-04    0.37E-06
   0      9    12.315    66.151    0.14E-03    0.23E-04    0.36E-06
   1      8    12.315    22.077    0.30E-03    0.54E-03    0.45E-06
   1      8    12.315    15.894    0.30E-03    0.55E-03    0.45E-06
 Optimization of the real space projectors (new method)

 maximal supplied QI-value         = 24.76
 optimisation between [QCUT,QGAM] = [ 12.38, 25.00] = [ 42.90,175.06] Ry 
 Optimized for a Real-space Cutoff    1.13 Angstroem

   l    n(q)    QCUT    max X(q) W(low)/X(q) W(high)/X(q)  e(spline) 
   0      8    12.378    20.381    0.16E-03    0.54E-05    0.27E-06
   0      8    12.378    15.268    0.17E-03    0.61E-05    0.29E-06
   1      8    12.378     5.964    0.38E-03    0.23E-03    0.28E-06
   1      8    12.378     5.382    0.33E-03    0.20E-03    0.25E-06
  PAW_PBE C 08Apr2002                   :
 energy of atom  1       EATOM= -147.1560
 kinetic energy error for atom=    0.0057 (will be added to EATOM!!)
  PAW_PBE Zn 06Sep2000                  :
 energy of atom  2       EATOM=-1748.8345
 kinetic energy error for atom=    0.0020 (will be added to EATOM!!)
  PAW_PBE H 15Jun2001                   :
 energy of atom  3       EATOM=  -12.4884
 kinetic energy error for atom=    0.0004 (will be added to EATOM!!)
  PAW_PBE N 08Apr2002                   :
 energy of atom  4       EATOM= -264.5486
 kinetic energy error for atom=    0.0103 (will be added to EATOM!!)
  PAW_PBE O 08Apr2002                   :
 energy of atom  5       EATOM= -432.3788
 kinetic energy error for atom=    0.0168 (will be added to EATOM!!)
 
 
 POSCAR: Zn_H
  positions in direct lattice
  velocities in cartesian coordinates
 exchange correlation table for  LEXCH =        8
   RHO(1)=    0.500       N(1)  =     2000
   RHO(2)=  100.500       N(2)  =     4000
 


--------------------------------------------------------------------------------------------------------


 ion  position               nearest neighbor table
   1  0.896  0.957  0.158- 107 1.08 117 1.34  65 1.39
   2  0.744  0.952  0.428- 112 1.09 118 1.36  65 1.40
   3  0.896  0.799  0.888- 116 1.08 119 1.34  66 1.39
   4  0.604  0.457  0.656- 110 1.08 120 1.34  67 1.39
   5  0.755  0.304  0.117- 111 1.09 121 1.36  68 1.40
   6  0.253  0.804  0.119- 115 1.09 122 1.36  69 1.40
   7  0.756  0.452  0.926- 101 1.09 123 1.36  67 1.40
   8  0.603  0.299  0.387- 113 1.08 124 1.34  68 1.39
   9  0.248  0.452  0.426- 114 1.09 125 1.36  70 1.40
  10  0.101  0.799  0.388- 104 1.08 126 1.34  69 1.39
  11  0.252  0.952  0.928- 105 1.09 127 1.36  71 1.40
  12  0.247  0.304  0.617- 102 1.09 128 1.36  72 1.40
  13  0.745  0.804  0.618- 108 1.09 129 1.36  66 1.40
  14  0.100  0.957  0.658- 109 1.08 130 1.34  71 1.39
  15  0.399  0.299  0.887- 106 1.08 131 1.34  72 1.39
  16  0.400  0.457  0.157- 103 1.08 132 1.34  70 1.39
  17  0.683  0.032  0.133- 141 1.23 133 1.41  33 1.48
  18  0.824  0.051  0.470- 142 1.23 133 1.41  34 1.48
  19  0.826  0.705  0.576- 143 1.23 134 1.41  35 1.48
  20  0.676  0.551  0.969- 144 1.23 135 1.41  36 1.48
  21  0.674  0.205  0.076- 145 1.23 136 1.41  37 1.48
  22  0.314  0.724  0.413- 146 1.23 137 1.41  38 1.48
  23  0.816  0.532  0.632- 147 1.23 135 1.41  39 1.48
  24  0.815  0.224  0.412- 148 1.23 136 1.41  40 1.48
  25  0.187  0.532  0.132- 149 1.23 138 1.41  41 1.48
  26  0.174  0.705  0.077- 150 1.23 137 1.41  42 1.48
  27  0.172  0.051  0.969- 151 1.23 139 1.41  43 1.48
  28  0.326  0.205  0.576- 152 1.23 140 1.41  44 1.48
  29  0.685  0.724  0.913- 153 1.23 134 1.41  45 1.48
  30  0.313  0.032  0.633- 154 1.23 139 1.41  46 1.48
  31  0.186  0.224  0.912- 155 1.23 140 1.41  47 1.48
  32  0.328  0.551  0.468- 156 1.23 138 1.41  48 1.48
  33  0.687  0.076  0.119-  49 1.39  73 1.41  17 1.48
  34  0.815  0.095  0.455-  50 1.39  73 1.41  18 1.48
  35  0.817  0.661  0.590-  51 1.39  74 1.41  19 1.48
  36  0.685  0.595  0.955-  52 1.39  75 1.41  20 1.48
  37  0.683  0.160  0.090-  53 1.39  76 1.41  21 1.48
  38  0.311  0.680  0.427-  54 1.39  77 1.41  22 1.48
  39  0.813  0.576  0.618-  55 1.39  75 1.41  23 1.48
  40  0.811  0.179  0.426-  56 1.39  76 1.41  24 1.48
  41  0.190  0.576  0.118-  57 1.39  78 1.41  25 1.48
  42  0.184  0.661  0.090-  58 1.39  77 1.41  26 1.48
  43  0.182  0.095  0.955-  59 1.39  79 1.41  27 1.48
  44  0.316  0.161  0.590-  60 1.39  80 1.41  28 1.48
  45  0.688  0.679  0.927-  61 1.39  74 1.41  29 1.48
  46  0.310  0.076  0.619-  62 1.39  79 1.41  30 1.48
  47  0.188  0.180  0.926-  63 1.39  80 1.41  31 1.48
  48  0.317  0.595  0.455-  64 1.39  78 1.41  32 1.48
  49  0.626  0.088  0.947-  88 1.09  33 1.39  53 1.40
  50  0.875  0.126  0.612-  99 1.09  34 1.39  56 1.40
  51  0.877  0.630  0.433-  93 1.09  35 1.39  55 1.40
  52  0.624  0.625  0.112-  90 1.09  36 1.39  61 1.40
  53  0.623  0.130  0.933-  98 1.09  37 1.39  49 1.40
  54  0.372  0.668  0.599-  96 1.09  38 1.39  64 1.40
  55  0.874  0.588  0.447-  86 1.09  39 1.39  51 1.40
  56  0.872  0.168  0.598-  87 1.09  40 1.39  50 1.40
  57  0.129  0.588  0.946-  95 1.09  41 1.39  58 1.40
  58  0.124  0.630  0.933-  91 1.09  42 1.39  57 1.40
  59  0.123  0.126  0.112-  92 1.09  43 1.39  63 1.40
  60  0.375  0.130  0.433-  85 1.09  44 1.39  62 1.40
  61  0.628  0.668  0.098-  89 1.09  45 1.39  52 1.40
  62  0.371  0.088  0.446- 100 1.09  46 1.39  60 1.40
  63  0.127  0.168  0.098-  94 1.09  47 1.39  59 1.40
  64  0.377  0.626  0.612-  97 1.09  48 1.39  54 1.40
  65  0.788  0.979  0.301-   1 1.39   2 1.40 133 1.42
  66  0.789  0.777  0.745-   3 1.39  13 1.40 134 1.42
  67  0.712  0.479  0.800-   4 1.39   7 1.40 135 1.42
  68  0.711  0.277  0.244-   8 1.39   5 1.40 136 1.42
  69  0.209  0.777  0.245-  10 1.39   6 1.40 137 1.42
  70  0.292  0.479  0.300-  16 1.39   9 1.40 138 1.42
  71  0.208  0.979  0.801-  14 1.39  11 1.40 139 1.42
  72  0.291  0.277  0.744-  15 1.39  12 1.40 140 1.42
  73  0.750  0.107  0.280-  34 1.41  33 1.41  76 1.42
  74  0.751  0.649  0.765-  45 1.41  35 1.41  75 1.42
  75  0.750  0.607  0.780-  36 1.41  39 1.41  74 1.42
  76  0.749  0.149  0.265-  40 1.41  37 1.41  73 1.42
  77  0.249  0.649  0.265-  38 1.41  42 1.41  78 1.42
  78  0.252  0.607  0.280-  41 1.41  48 1.41  77 1.42
  79  0.248  0.107  0.780-  46 1.41  43 1.41  80 1.42
  80  0.250  0.149  0.765-  47 1.41  44 1.41  79 1.42
  81  0.071  0.878  0.023- 127 1.99 122 1.99 119 2.02 117 2.02
  82  0.926  0.878  0.523- 129 1.99 118 1.99 126 2.02 130 2.02
  83  0.429  0.378  0.522- 125 1.99 128 1.99 124 2.02 120 2.02
  84  0.574  0.378  0.022- 121 1.99 123 1.99 132 2.02 131 2.02
  85  0.425  0.139  0.299-  60 1.09
  86  0.917  0.564  0.323-  55 1.09
  87  0.916  0.192  0.722-  56 1.09
  88  0.582  0.064  0.824-  49 1.09
  89  0.584  0.692  0.222-  61 1.09
  90  0.575  0.616  0.245-  52 1.09
  91  0.075  0.640  0.800-  58 1.09
  92  0.073  0.117  0.245-  59 1.09
  93  0.926  0.640  0.300-  51 1.09
  94  0.085  0.192  0.222-  63 1.09
  95  0.086  0.564  0.822-  57 1.09
  96  0.415  0.692  0.723-  54 1.09
  97  0.427  0.616  0.745-  64 1.09
  98  0.573  0.139  0.800-  53 1.09
  99  0.925  0.116  0.746-  50 1.09
 100  0.414  0.064  0.323-  62 1.09
 101  0.835  0.457  0.059-   7 1.09
 102  0.167  0.299  0.485-  12 1.09
 103  0.461  0.467  0.033-  16 1.08
 104  0.040  0.788  0.512-  10 1.08
 105  0.331  0.957  0.060-  11 1.09
 106  0.460  0.288  0.010-  15 1.08
 107  0.957  0.967  0.035-   1 1.08
 108  0.665  0.799  0.486-  13 1.09
 109  0.039  0.967  0.534-  14 1.08
 110  0.543  0.467  0.533-   4 1.08
 111  0.835  0.299  0.985-   5 1.09
 112  0.664  0.957  0.560-   2 1.09
 113  0.541  0.288  0.510-   8 1.08
 114  0.169  0.457  0.559-   9 1.09
 115  0.332  0.799  0.986-   6 1.09
 116  0.958  0.788  0.012-   3 1.08
 117  0.918  0.919  0.197-   1 1.34 118 1.37  81 2.02
 118  0.824  0.916  0.362-   2 1.36 117 1.37  82 1.99
 119  0.918  0.837  0.849-   3 1.34 129 1.37  81 2.02
 120  0.582  0.419  0.695-   4 1.34 123 1.37  83 2.02
 121  0.675  0.340  0.183-   5 1.36 124 1.37  84 1.99
 122  0.173  0.840  0.184-   6 1.36 126 1.37  81 1.99
 123  0.676  0.416  0.861-   7 1.36 120 1.37  84 1.99
 124  0.581  0.337  0.348-   8 1.34 121 1.37  83 2.02
 125  0.327  0.416  0.361-   9 1.36 132 1.37  83 1.99
 126  0.079  0.837  0.349-  10 1.34 122 1.37  82 2.02
 127  0.172  0.916  0.862-  11 1.36 130 1.37  81 1.99
 128  0.327  0.340  0.683-  12 1.36 131 1.37  83 1.99
 129  0.824  0.840  0.684-  13 1.36 119 1.37  82 1.99
 130  0.078  0.919  0.697-  14 1.34 127 1.37  82 2.02
 131  0.421  0.337  0.848-  15 1.34 128 1.37  84 2.02
 132  0.422  0.419  0.195-  16 1.34 125 1.37  84 2.02
 133  0.753  0.022  0.310-  18 1.41  17 1.41  65 1.42
 134  0.755  0.734  0.737-  19 1.41  29 1.41  66 1.42
 135  0.746  0.522  0.808-  20 1.41  23 1.41  67 1.42
 136  0.745  0.234  0.235-  21 1.41  24 1.41  68 1.42
 137  0.244  0.734  0.237-  26 1.41  22 1.41  69 1.42
 138  0.257  0.522  0.308-  32 1.41  25 1.41  70 1.42
 139  0.242  0.022  0.809-  27 1.41  30 1.41  71 1.42
 140  0.256  0.234  0.736-  28 1.41  31 1.41  72 1.42
 141  0.623  0.005  1.000-  17 1.23
 142  0.891  0.040  0.614-  18 1.23
 143  0.893  0.716  0.432-  19 1.23
 144  0.609  0.540  0.113-  20 1.23
 145  0.607  0.216  0.931-  21 1.23
 146  0.373  0.751  0.547-  22 1.23
 147  0.877  0.505  0.498-  23 1.23
 148  0.875  0.251  0.546-  24 1.23
 149  0.127  0.505  0.998-  25 1.23
 150  0.106  0.716  0.932-  26 1.23
 151  0.104  0.040  0.113-  27 1.23
 152  0.394  0.216  0.432-  28 1.23
 153  0.625  0.751  0.047-  29 1.23
 154  0.372  0.005  0.499-  30 1.23
 155  0.127  0.251  0.046-  31 1.23
 156  0.396  0.540  0.612-  32 1.23
 

IMPORTANT INFORMATION: All symmetrisations will be switched off!
NOSYMM: (Re-)initialisation of all symmetry stuff for point group C_1.


----------------------------------------------------------------------------------------

                                     Primitive cell                                     

  volume of cell :    1758.9292

  direct lattice vectors                    reciprocal lattice vectors
     8.104049567 -0.000911837 -0.001521430     0.123395097 -0.000006052 -0.000005344
     0.001458394 32.727600670 -3.389109200     0.000004071  0.030884016  0.003174799
     0.000256530 -0.689068684  6.703166907     0.000030065  0.015614902  0.150788388

  length of vectors
     8.104049762 32.902612493  6.738491100     0.123395098  0.031046768  0.151594736

  position of ions in fractional coordinates (direct lattice)
     0.895571563  0.957005846  0.158111738
     0.743681037  0.952099889  0.427605915
     0.896153903  0.798808695  0.888472715
     0.604460944  0.456893067  0.656370820
     0.755314300  0.303544195  0.117326017
     0.252796483  0.803701899  0.118675311
     0.756063198  0.452021557  0.926183297
     0.603122541  0.298723118  0.386725358
     0.247743626  0.452241267  0.426382317
     0.101136737  0.798848863  0.388443778
     0.252002741  0.952310093  0.927640911
     0.246732073  0.303643817  0.617448534
     0.744516576  0.803560374  0.618490393
     0.100192796  0.957033400  0.657778383
     0.398793844  0.298788703  0.886939271
     0.399545541  0.457010637  0.156609066
     0.683435772  0.031898145  0.133360769
     0.824264435  0.050970364  0.469735647
     0.825732957  0.704804724  0.576346872
     0.675607974  0.550817346  0.968643135
     0.673910127  0.204710581  0.075557910
     0.313848167  0.723993803  0.413241955
     0.816457424  0.531890371  0.632265687
     0.814831112  0.223774368  0.411944496
     0.187212773  0.531965881  0.132098345
     0.173515811  0.704873222  0.076500309
     0.171693413  0.051137893  0.968964325
     0.326464865  0.204774323  0.575799320
     0.684905953  0.723716376  0.912752860
     0.312523144  0.031935807  0.632674441
     0.186021959  0.223995725  0.912381484
     0.328010088  0.551062663  0.468485322
     0.686925085  0.076213818  0.119079683
     0.815050584  0.095200204  0.455302787
     0.816521459  0.660542515  0.590220394
     0.684814629  0.595071676  0.954700227
     0.683199616  0.160477664  0.089960797
     0.311433777  0.679641532  0.426944818
     0.812920930  0.576232108  0.618429783
     0.811329188  0.179463607  0.426207292
     0.189820620  0.576312035  0.118304109
     0.183965880  0.660623927  0.090321473
     0.182310600  0.095372253  0.954981169
     0.315908747  0.160542576  0.589913943
     0.688480620  0.679378656  0.926536203
     0.309895620  0.076261133  0.618503976
     0.188441353  0.179662664  0.926444818
     0.317429519  0.595319873  0.454867030
     0.625951747  0.087982144  0.947168480
     0.875482585  0.125680677  0.611933596
     0.877058832  0.630125899  0.433401473
     0.624313985  0.625487198  0.111541386
     0.622598061  0.129997506  0.933436598
     0.372480766  0.667871526  0.598819984
     0.873757899  0.588083856  0.446683309
     0.872152379  0.167692980  0.598184898
     0.128806626  0.588075721  0.946403663
     0.124335815  0.630116013  0.933267397
     0.122707846  0.125922407  0.111821255
     0.375459698  0.129990343  0.433033729
     0.627633443  0.667526406  0.098276899
     0.370888087  0.087966232  0.446468695
     0.127339470  0.167947490  0.098420984
     0.377051073  0.625828278  0.611925212
     0.787630751  0.979180865  0.301442548
     0.788535196  0.776545551  0.744955696
     0.712335016  0.479078324  0.799813979
     0.711080119  0.276502853  0.243566201
     0.209094528  0.776666617  0.245161568
     0.291851108  0.479265522  0.300007411
     0.207944468  0.979307720  0.801090039
     0.290664091  0.276604811  0.743838139
     0.749794792  0.106585280  0.280165304
     0.751253852  0.649071940  0.765148159
     0.750044168  0.606538284  0.779764323
     0.748533474  0.149094233  0.265087046
     0.249478276  0.649242038  0.265369929
     0.251830263  0.606705848  0.279881903
     0.247927673  0.106698502  0.779884104
     0.250352784  0.149218827  0.765061853
     0.070565466  0.877961875  0.023123619
     0.925996963  0.877846924  0.522927152
     0.429103093  0.377889859  0.521598463
     0.573677623  0.377836490  0.021756263
     0.424984496  0.139380014  0.299477605
     0.917366743  0.563921065  0.322923657
     0.915693975  0.191908601  0.721774105
     0.582268428  0.063772013  0.823639578
     0.584138881  0.691690411  0.222096545
     0.575005753  0.615985703  0.244921509
     0.074800602  0.639552191  0.799818510
     0.073105234  0.116538955  0.245356979
     0.926365450  0.639629836  0.300011487
     0.084584839  0.192210904  0.222266699
     0.085934898  0.563843551  0.822461526
     0.415240831  0.692101345  0.722829321
     0.426649986  0.616396253  0.745350977
     0.573225620  0.139436736  0.799895622
     0.924747952  0.116259926  0.745555654
     0.413695332  0.063704463  0.322658252
     0.835178115  0.456971869  0.058995399
     0.167425544  0.298681691  0.484797741
     0.461171711  0.467337521  0.033209724
     0.039638344  0.788485085  0.511840746
     0.331117548  0.957325649  0.060461923
     0.460430737  0.288419186  0.010231076
     0.957164807  0.967407602  0.034882547
     0.665446109  0.798542416  0.485639794
     0.038599786  0.967341739  0.534286965
     0.543027484  0.467280284  0.532991584
     0.834672702  0.298569462  0.984755842
     0.664445148  0.957026478  0.560272027
     0.541375457  0.288348659  0.509924463
     0.168626781  0.457233531  0.559160689
     0.331895127  0.798728570  0.985873808
     0.957660206  0.788476747  0.011959717
     0.918008925  0.919120038  0.196879598
     0.823795145  0.915635367  0.362206290
     0.918351719  0.836687825  0.849491596
     0.581877603  0.419020936  0.695256797
     0.675361728  0.340034282  0.182543432
     0.172624632  0.840159063  0.183902388
     0.675931757  0.415556534  0.860772975
     0.580972680  0.336604084  0.347792429
     0.327429396  0.415722476  0.360959426
     0.078550164  0.836707035  0.349381726
     0.172192801  0.915794259  0.862409361
     0.326986722  0.340105323  0.682550622
     0.824295502  0.840071999  0.683869186
     0.078010360  0.919162768  0.696854936
     0.421283833  0.336650301  0.847885057
     0.421613449  0.419118598  0.195482033
     0.753383805  0.021932050  0.309723329
     0.754666544  0.733769685  0.736508372
     0.746486090  0.521843979  0.808400870
     0.745096082  0.233741880  0.235422129
     0.243746844  0.733941191  0.236896524
     0.257488314  0.522006424  0.308277867
     0.242341343  0.022039478  0.809046171
     0.256014335  0.233882957  0.735843677
     0.623192033  0.004983591  0.999678238
     0.891215052  0.039890475  0.614013080
     0.892711295  0.715964659  0.432337877
     0.608718540  0.539670005  0.112755369
     0.606760070  0.215785791  0.931392240
     0.373425503  0.750940397  0.547290806
     0.876766653  0.505021244  0.498469439
     0.874918275  0.250688863  0.545767541
     0.127329659  0.505023305  0.998245290
     0.106281795  0.715921847  0.932312466
     0.104061446  0.040109961  0.112935816
     0.393938150  0.215778267  0.431650743
     0.624702664  0.750574843  0.046702477
     0.372399055  0.004960309  0.498996438
     0.126539743  0.250977522  0.046305297
     0.395558590  0.539983108  0.612380218

  ion indices of the primitive-cell ions
   primitive index   ion index
                 1           1
                 2           2
                 3           3
                 4           4
                 5           5
                 6           6
                 7           7
                 8           8
                 9           9
                10          10
                11          11
                12          12
                13          13
                14          14
                15          15
                16          16
                17          17
                18          18
                19          19
                20          20
                21          21
                22          22
                23          23
                24          24
                25          25
                26          26
                27          27
                28          28
                29          29
                30          30
                31          31
                32          32
                33          33
                34          34
                35          35
                36          36
                37          37
                38          38
                39          39
                40          40
                41          41
                42          42
                43          43
                44          44
                45          45
                46          46
                47          47
                48          48
                49          49
                50          50
                51          51
                52          52
                53          53
                54          54
                55          55
                56          56
                57          57
                58          58
                59          59
                60          60
                61          61
                62          62
                63          63
                64          64
                65          65
                66          66
                67          67
                68          68
                69          69
                70          70
                71          71
                72          72
                73          73
                74          74
                75          75
                76          76
                77          77
                78          78
                79          79
                80          80
                81          81
                82          82
                83          83
                84          84
                85          85
                86          86
                87          87
                88          88
                89          89
                90          90
                91          91
                92          92
                93          93
                94          94
                95          95
                96          96
                97          97
                98          98
                99          99
               100         100
               101         101
               102         102
               103         103
               104         104
               105         105
               106         106
               107         107
               108         108
               109         109
               110         110
               111         111
               112         112
               113         113
               114         114
               115         115
               116         116
               117         117
               118         118
               119         119
               120         120
               121         121
               122         122
               123         123
               124         124
               125         125
               126         126
               127         127
               128         128
               129         129
               130         130
               131         131
               132         132
               133         133
               134         134
               135         135
               136         136
               137         137
               138         138
               139         139
               140         140
               141         141
               142         142
               143         143
               144         144
               145         145
               146         146
               147         147
               148         148
               149         149
               150         150
               151         151
               152         152
               153         153
               154         154
               155         155
               156         156

----------------------------------------------------------------------------------------

 
 

Automatic generation of k-mesh.
 generate k-points for:    3    1    4
Space group operators:
 irot       det(A)        alpha          n_x          n_y          n_z        tau_x        tau_y        tau_z
    1     1.000000     0.000000     1.000000     0.000000     0.000000     0.000000     0.000000     0.000000
 
 Subroutine IBZKPT returns following result:
 ===========================================
 
 Found      7 irreducible k-points:
 
 Following reciprocal coordinates:
            Coordinates               Weight
  0.000000  0.000000  0.000000      1.000000
  0.333333  0.000000  0.000000      2.000000
  0.000000 -0.000000  0.250000      2.000000
  0.333333 -0.000000  0.250000      2.000000
 -0.333333 -0.000000  0.250000      2.000000
  0.000000 -0.000000  0.500000      1.000000
  0.333333 -0.000000  0.500000      2.000000
 
 Following cartesian coordinates:
            Coordinates               Weight
  0.000000  0.000000  0.000000      1.000000
  0.041132 -0.000002 -0.000002      2.000000
  0.000008  0.003904  0.037697      2.000000
  0.041139  0.003902  0.037695      2.000000
 -0.041124  0.003906  0.037699      2.000000
  0.000015  0.007807  0.075394      1.000000
  0.041147  0.007805  0.075392      2.000000
 


--------------------------------------------------------------------------------------------------------




 Dimension of arrays:
   k-points           NKPTS =      7   k-points in BZ     NKDIM =      7   number of bands    NBANDS=    400
   number of dos      NEDOS =    301   number of ions     NIONS =    156
   non local maximal  LDIM  =      6   non local SUM 2l+1 LMDIM =     18
   total plane-waves  NPLWV = 400000
   max r-space proj   IRMAX =   2175   max aug-charges    IRDMAX=   6977
   dimension x,y,z NGX =    50 NGY =  200 NGZ =   40
   dimension x,y,z NGXF=   100 NGYF=  400 NGZF=   80
   support grid    NGXF=   100 NGYF=  400 NGZF=   80
   ions per type =              80   4  32  24  16
   NGX,Y,Z   is equivalent  to a cutoff of  10.26, 10.11,  9.87 a.u.
   NGXF,Y,Z  is equivalent  to a cutoff of  20.51, 20.21, 19.74 a.u.

 SYSTEM =  flex_MOF                                
 POSCAR =  Zn_H                                    

 Startparameter for this run:
   NWRITE =      2    write-flag & timer
   PREC   = normal    normal or accurate (medium, high low for compatibility)
   ISTART =      0    job   : 0-new  1-cont  2-samecut
   ICHARG =      2    charge: 1-file 2-atom 10-const
   ISPIN  =      1    spin polarized calculation?
   LNONCOLLINEAR =      F non collinear calculations
   LSORBIT =      F    spin-orbit coupling
   INIWAV =      1    electr: 0-lowe 1-rand  2-diag
   LASPH  =      F    aspherical Exc in radial PAW
   METAGGA=      F    non-selfconsistent MetaGGA calc.

 Electronic Relaxation 1
   ENCUT  =  600.0 eV  44.10 Ry    6.64 a.u.  16.19 65.71 13.46*2*pi/ulx,y,z
   ENINI  =  600.0     initial cutoff
   ENAUG  =  644.9 eV  augmentation charge cutoff
   NELM   =     80;   NELMIN=  4; NELMDL=-12     # of ELM steps 
   EDIFF  = 0.1E-05   stopping-criterion for ELM
   LREAL  =      T    real-space projection
   NLSPLINE    = F    spline interpolate recip. space projectors
   LCOMPAT=      F    compatible to vasp.4.4
   GGA_COMPAT  = T    GGA compatible to vasp.4.4-vasp.4.6
   LMAXPAW     = -100 max onsite density
   LMAXMIX     =    2 max onsite mixed and CHGCAR
   VOSKOWN=      0    Vosko Wilk Nusair interpolation
   ROPT   =   -0.00050  -0.00050  -0.00050  -0.00050
   ROPT   =   -0.00050
 Ionic relaxation
   EDIFFG = -.1E-01   stopping-criterion for IOM
   NSW    =   1000    number of steps for IOM
   NBLOCK =      1;   KBLOCK =   1000    inner block; outer block 
   IBRION =      2    ionic relax: 0-MD 1-quasi-New 2-CG
   NFREE  =      1    steps in history (QN), initial steepest desc. (CG)
   ISIF   =      4    stress and relaxation
   IWAVPR =     11    prediction:  0-non 1-charg 2-wave 3-comb
   ISYM   =      0    0-nonsym 1-usesym 2-fastsym
   LCORR  =      T    Harris-Foulkes like correction to forces

   POTIM  = 0.5000    time-step for ionic-motion
   TEIN   =    0.0    initial temperature
   TEBEG  =    0.0;   TEEND  =   0.0 temperature during run
   SMASS  =  -3.00    Nose mass-parameter (am)
   estimated Nose-frequenzy (Omega)   =  0.10E-29 period in steps = 0.13E+47 mass=  -0.150E-26a.u.
   SCALEE = 1.0000    scale energy and forces
   NPACO  =    256;   APACO  = 16.0  distance and # of slots for P.C.
   PSTRESS=    0.0 pullay stress

  Mass of Ions in am
   POMASS =  12.01 65.39  1.00 14.00 16.00
  Ionic Valenz
   ZVAL   =   4.00 12.00  1.00  5.00  6.00
  Atomic Wigner-Seitz radii
   RWIGS  =  -1.00 -1.00 -1.00 -1.00 -1.00
  virtual crystal weights 
   VCA    =   1.00  1.00  1.00  1.00  1.00
   NELECT =     616.0000    total number of electrons
   NUPDOWN=      -1.0000    fix difference up-down

 DOS related values:
   EMIN   =  10.00;   EMAX   =-10.00  energy-range for DOS
   EFERMI =   0.00
   ISMEAR =     0;   SIGMA  =   0.05  broadening in eV -4-tet -1-fermi 0-gaus

 Electronic relaxation 2 (details)
   IALGO  =     48    algorithm
   LDIAG  =      T    sub-space diagonalisation (order eigenvalues)
   LSUBROT=      F    optimize rotation matrix (better conditioning)
   TURBO    =      0    0=normal 1=particle mesh
   IRESTART =      0    0=no restart 2=restart with 2 vectors
   NREBOOT  =      0    no. of reboots
   NMIN     =      0    reboot dimension
   EREF     =   0.00    reference energy to select bands
   IMIX   =      4    mixing-type and parameters
     AMIX     =   0.40;   BMIX     =  1.00
     AMIX_MAG =   1.60;   BMIX_MAG =  1.00
     AMIN     =   0.10
     WC   =   100.;   INIMIX=   1;  MIXPRE=   1;  MAXMIX= -45

 Intra band minimization:
   WEIMIN = 0.0010     energy-eigenvalue tresh-hold
   EBREAK =  0.63E-09  absolut break condition
   DEPER  =   0.30     relativ break condition  

   TIME   =   0.40     timestep for ELM

  volume/ion in A,a.u.               =      11.28        76.09
  Fermi-wavevector in a.u.,A,eV,Ry     =   1.153946  2.180642 18.117411  1.331592
  Thomas-Fermi vector in A             =   2.290587
 
 Write flags
   LWAVE        =      T    write WAVECAR
   LDOWNSAMPLE  =      F    k-point downsampling of WAVECAR
   LCHARG       =      T    write CHGCAR
   LVTOT        =      F    write LOCPOT, total local potential
   LVHAR        =      F    write LOCPOT, Hartree potential only
   LELF         =      F    write electronic localiz. function (ELF)
   LORBIT       =      0    0 simple, 1 ext, 2 COOP (PROOUT), +10 PAW based schemes


 Dipole corrections
   LMONO  =      F    monopole corrections only (constant potential shift)
   LDIPOL =      F    correct potential (dipole corrections)
   IDIPOL =      0    1-x, 2-y, 3-z, 4-all directions 
   EPSILON=  1.0000000 bulk dielectric constant

 Exchange correlation treatment:
   GGA     =    PE    GGA type
   LEXCH   =     8    internal setting for exchange type
   VOSKOWN=      0    Vosko Wilk Nusair interpolation
   LHFCALC =     F    Hartree Fock is set to
   LHFONE  =     F    Hartree Fock one center treatment
   AEXX    =    0.0000 exact exchange contribution

 Linear response parameters
   LEPSILON=     F    determine dielectric tensor
   LRPA    =     F    only Hartree local field effects (RPA)
   LNABLA  =     F    use nabla operator in PAW spheres
   LVEL    =     F    velocity operator in full k-point grid
   LINTERFAST=   F  fast interpolation
   KINTER  =     0    interpolate to denser k-point grid
   CSHIFT  =0.1000    complex shift for real part using Kramers Kronig
   OMEGAMAX=  -1.0    maximum frequency
   DEG_THRESHOLD= 0.2000000E-02 threshold for treating states as degnerate
   RTIME   =   -0.100 relaxation time in fs
  (WPLASMAI=    0.000 imaginary part of plasma frequency in eV, 0.658/RTIME)
   DFIELD  = 0.0000000 0.0000000 0.0000000 field for delta impulse in time
 
 Orbital magnetization related:
   ORBITALMAG=     F  switch on orbital magnetization
   LCHIMAG   =     F  perturbation theory with respect to B field
   DQ        =  0.001000  dq finite difference perturbation B field
   LLRAUG    =     F  two centre corrections for induced B field



--------------------------------------------------------------------------------------------------------


 conjugate gradient relaxation of ions
 charge density and potential will be updated during run
 non-spin polarized calculation
 RMM-DIIS sequential band-by-band
 perform sub-space diagonalisation
    before iterative eigenvector-optimisation
 modified Broyden-mixing scheme, WC =      100.0
 initial mixing is a Kerker type mixing with AMIX =  0.4000 and BMIX =      1.0000
 Hartree-type preconditioning will be used
 using additional bands           92
 real space projection scheme for non local part
 use partial core corrections
 calculate Harris-corrections to forces 
   (improved forces if not selfconsistent)
 use gradient corrections 
 use of overlap-Matrix (Vanderbilt PP)
 Gauss-broadening in eV      SIGMA  =   0.05


--------------------------------------------------------------------------------------------------------


  energy-cutoff  :      600.00
  volume of cell :     1758.93
      direct lattice vectors                 reciprocal lattice vectors
     8.104049567 -0.000911837 -0.001521430     0.123395097 -0.000006052 -0.000005344
     0.001458394 32.727600670 -3.389109200     0.000004071  0.030884016  0.003174799
     0.000256530 -0.689068684  6.703166907     0.000030065  0.015614902  0.150788388

  length of vectors
     8.104049762 32.902612493  6.738491100     0.123395098  0.031046768  0.151594736


 
 k-points in units of 2pi/SCALE and weight: read from INCAR                         
   0.00000000  0.00000000  0.00000000       0.083
   0.04113170 -0.00000202 -0.00000178       0.167
   0.00000752  0.00390373  0.03769710       0.167
   0.04113922  0.00390171  0.03769532       0.167
  -0.04112418  0.00390574  0.03769888       0.167
   0.00001503  0.00780745  0.07539419       0.083
   0.04114673  0.00780543  0.07539241       0.167
 
 k-points in reciprocal lattice and weights: read from INCAR                         
   0.00000000  0.00000000  0.00000000       0.083
   0.33333333  0.00000000  0.00000000       0.167
   0.00000000 -0.00000000  0.25000000       0.167
   0.33333333 -0.00000000  0.25000000       0.167
  -0.33333333 -0.00000000  0.25000000       0.167
   0.00000000 -0.00000000  0.50000000       0.083
   0.33333333 -0.00000000  0.50000000       0.167
 
 position of ions in fractional coordinates (direct lattice) 
   0.89557156  0.95700585  0.15811174
   0.74368104  0.95209989  0.42760591
   0.89615390  0.79880870  0.88847272
   0.60446094  0.45689307  0.65637082
   0.75531430  0.30354420  0.11732602
   0.25279648  0.80370190  0.11867531
   0.75606320  0.45202156  0.92618330
   0.60312254  0.29872312  0.38672536
   0.24774363  0.45224127  0.42638232
   0.10113674  0.79884886  0.38844378
   0.25200274  0.95231009  0.92764091
   0.24673207  0.30364382  0.61744853
   0.74451658  0.80356037  0.61849039
   0.10019280  0.95703340  0.65777838
   0.39879384  0.29878870  0.88693927
   0.39954554  0.45701064  0.15660907
   0.68343577  0.03189815  0.13336077
   0.82426444  0.05097036  0.46973565
   0.82573296  0.70480472  0.57634687
   0.67560797  0.55081735  0.96864313
   0.67391013  0.20471058  0.07555791
   0.31384817  0.72399380  0.41324196
   0.81645742  0.53189037  0.63226569
   0.81483111  0.22377437  0.41194450
   0.18721277  0.53196588  0.13209835
   0.17351581  0.70487322  0.07650031
   0.17169341  0.05113789  0.96896433
   0.32646486  0.20477432  0.57579932
   0.68490595  0.72371638  0.91275286
   0.31252314  0.03193581  0.63267444
   0.18602196  0.22399573  0.91238148
   0.32801009  0.55106266  0.46848532
   0.68692508  0.07621382  0.11907968
   0.81505058  0.09520020  0.45530279
   0.81652146  0.66054252  0.59022039
   0.68481463  0.59507168  0.95470023
   0.68319962  0.16047766  0.08996080
   0.31143378  0.67964153  0.42694482
   0.81292093  0.57623211  0.61842978
   0.81132919  0.17946361  0.42620729
   0.18982062  0.57631204  0.11830411
   0.18396588  0.66062393  0.09032147
   0.18231060  0.09537225  0.95498117
   0.31590875  0.16054258  0.58991394
   0.68848062  0.67937866  0.92653620
   0.30989562  0.07626113  0.61850398
   0.18844135  0.17966266  0.92644482
   0.31742952  0.59531987  0.45486703
   0.62595175  0.08798214  0.94716848
   0.87548259  0.12568068  0.61193360
   0.87705883  0.63012590  0.43340147
   0.62431398  0.62548720  0.11154139
   0.62259806  0.12999751  0.93343660
   0.37248077  0.66787153  0.59881998
   0.87375790  0.58808386  0.44668331
   0.87215238  0.16769298  0.59818490
   0.12880663  0.58807572  0.94640366
   0.12433581  0.63011601  0.93326740
   0.12270785  0.12592241  0.11182125
   0.37545970  0.12999034  0.43303373
   0.62763344  0.66752641  0.09827690
   0.37088809  0.08796623  0.44646870
   0.12733947  0.16794749  0.09842098
   0.37705107  0.62582828  0.61192521
   0.78763075  0.97918087  0.30144255
   0.78853520  0.77654555  0.74495570
   0.71233502  0.47907832  0.79981398
   0.71108012  0.27650285  0.24356620
   0.20909453  0.77666662  0.24516157
   0.29185111  0.47926552  0.30000741
   0.20794447  0.97930772  0.80109004
   0.29066409  0.27660481  0.74383814
   0.74979479  0.10658528  0.28016530
   0.75125385  0.64907194  0.76514816
   0.75004417  0.60653828  0.77976432
   0.74853347  0.14909423  0.26508705
   0.24947828  0.64924204  0.26536993
   0.25183026  0.60670585  0.27988190
   0.24792767  0.10669850  0.77988410
   0.25035278  0.14921883  0.76506185
   0.07056547  0.87796188  0.02312362
   0.92599696  0.87784692  0.52292715
   0.42910309  0.37788986  0.52159846
   0.57367762  0.37783649  0.02175626
   0.42498450  0.13938001  0.29947760
   0.91736674  0.56392107  0.32292366
   0.91569398  0.19190860  0.72177411
   0.58226843  0.06377201  0.82363958
   0.58413888  0.69169041  0.22209654
   0.57500575  0.61598570  0.24492151
   0.07480060  0.63955219  0.79981851
   0.07310523  0.11653896  0.24535698
   0.92636545  0.63962984  0.30001149
   0.08458484  0.19221090  0.22226670
   0.08593490  0.56384355  0.82246153
   0.41524083  0.69210134  0.72282932
   0.42664999  0.61639625  0.74535098
   0.57322562  0.13943674  0.79989562
   0.92474795  0.11625993  0.74555565
   0.41369533  0.06370446  0.32265825
   0.83517812  0.45697187  0.05899540
   0.16742554  0.29868169  0.48479774
   0.46117171  0.46733752  0.03320972
   0.03963834  0.78848509  0.51184075
   0.33111755  0.95732565  0.06046192
   0.46043074  0.28841919  0.01023108
   0.95716481  0.96740760  0.03488255
   0.66544611  0.79854242  0.48563979
   0.03859979  0.96734174  0.53428696
   0.54302748  0.46728028  0.53299158
   0.83467270  0.29856946  0.98475584
   0.66444515  0.95702648  0.56027203
   0.54137546  0.28834866  0.50992446
   0.16862678  0.45723353  0.55916069
   0.33189513  0.79872857  0.98587381
   0.95766021  0.78847675  0.01195972
   0.91800893  0.91912004  0.19687960
   0.82379514  0.91563537  0.36220629
   0.91835172  0.83668782  0.84949160
   0.58187760  0.41902094  0.69525680
   0.67536173  0.34003428  0.18254343
   0.17262463  0.84015906  0.18390239
   0.67593176  0.41555653  0.86077297
   0.58097268  0.33660408  0.34779243
   0.32742940  0.41572248  0.36095943
   0.07855016  0.83670703  0.34938173
   0.17219280  0.91579426  0.86240936
   0.32698672  0.34010532  0.68255062
   0.82429550  0.84007200  0.68386919
   0.07801036  0.91916277  0.69685494
   0.42128383  0.33665030  0.84788506
   0.42161345  0.41911860  0.19548203
   0.75338381  0.02193205  0.30972333
   0.75466654  0.73376968  0.73650837
   0.74648609  0.52184398  0.80840087
   0.74509608  0.23374188  0.23542213
   0.24374684  0.73394119  0.23689652
   0.25748831  0.52200642  0.30827787
   0.24234134  0.02203948  0.80904617
   0.25601433  0.23388296  0.73584368
   0.62319203  0.00498359  0.99967824
   0.89121505  0.03989047  0.61401308
   0.89271129  0.71596466  0.43233788
   0.60871854  0.53967000  0.11275537
   0.60676007  0.21578579  0.93139224
   0.37342550  0.75094040  0.54729081
   0.87676665  0.50502124  0.49846944
   0.87491827  0.25068886  0.54576754
   0.12732966  0.50502330  0.99824529
   0.10628180  0.71592185  0.93231247
   0.10406145  0.04010996  0.11293582
   0.39393815  0.21577827  0.43165074
   0.62470266  0.75057484  0.04670248
   0.37239906  0.00496031  0.49899644
   0.12653974  0.25097752  0.04630530
   0.39555859  0.53998311  0.61238022
 
 position of ions in cartesian coordinates  (Angst):
   7.25919259 31.21073869 -2.18491050
   6.02832622 30.86461702 -0.36158814
   7.26386855 25.53005612  3.24696757
   4.89941616 14.50017810  2.85038302
   6.12157731  9.85273880 -0.24343771
   2.04987779 26.22122885 -1.92871770
   6.12807046 14.15468771  4.67526051
   4.88826983  9.50946063  1.57896175
   2.00849555 14.50673899  1.32503988
   0.82088181 25.87664992 -0.10373642
   2.04386951 30.52738636  2.99026555
   2.00013018  9.51184417  3.10940314
   6.03492980 25.87174178  1.42135775
   0.81353186 30.86806108  1.16555515
   3.23250835  9.16711165  4.93206769
   3.23864355 14.84858290 -0.49969013
   5.53867810  0.95143184  0.78479340
   6.68007468  1.34370600  2.97471825
   6.69295655 22.66867203  1.47343281
   5.47621231 17.35885244  4.62516858
   5.46171900  6.64700706 -0.18833454
   2.54460298 23.40954181  0.31585824
   6.61754933 16.97107672  2.43430570
   6.60386375  7.03899712  2.00169724
   1.51799130 17.31877137 -0.91769804
   1.40722834 23.01593714 -1.87636197
   1.39173508  1.00578102  6.32155647
   2.64613380  6.30470929  3.16517971
   5.55180141 23.05592661  3.66453890
   2.53291192  0.60894122  4.13221296
   1.50809190  6.70197952  5.35641638
   2.65913386 17.71184111  1.27222473
   5.56701663  2.41161495  0.53886893
   6.60546597  2.80119618  2.72808665
   6.61824511 21.21052474  1.71645282
   5.55088445 18.81678972  4.38171018
   5.53694067  5.18943677  0.05810647
   2.52497548 21.94855838  0.55802918
   6.58895053 18.43181249  2.19128771
   6.57542302  5.57898738  2.24748247
   1.53918655 18.77961740 -1.16046103
   1.49185523 21.55823064 -1.63376661
   1.47783821  2.46309115  6.07789382
   2.56052561  4.84739404  3.40971467
   5.58070956 21.59535850  3.90719088
   2.51167935  2.06936962  3.88700659
   1.52763774  5.24137198  5.60093116
   2.57344945 19.16966700  1.03096262
   5.07311528  2.22620957  6.04989497
   7.09529454  3.69076444  3.67461551
   7.10875840 20.32306567  0.76826254
   5.06041230 20.39326628 -1.37311374
   5.04599459  3.61073682  5.81545833
   3.01973023 21.44486485  1.74993407
   7.08194957 18.93798139  0.99978301
   7.06836413  5.07520313  3.44007648
   1.04495571 18.59405277  4.35065291
   1.00878197 19.97898653  4.12012599
   0.99464280  4.04397383  0.32260506
   3.04304467  3.95553970  2.46157466
   5.08737126 21.77824581 -1.60450833
   3.00593826  2.57093794  2.69406273
   1.03223556  5.42858347  0.09034616
   3.05671027 20.05985565  1.98026280
   6.38450401 31.83780752 -1.29912949
   6.39165193 24.90042803  2.36056500
   5.77370214 15.12730778  3.73655407
   5.76309426  8.88079272  0.69448468
   1.69570800 25.24931109 -0.98916719
   2.36595176 15.47821880  0.38627252
   1.68682600 31.49819632  2.05054306
   2.35615042  8.53979119  4.04818506
   6.07660148  3.29454366  1.51562488
   6.08934134 20.71464260  2.92799716
   6.07947972 19.31254765  3.17012479
   6.06643781  4.69615080  1.27048723
   2.02279924 21.06504856 -0.42191280
   2.04180155 19.66293923 -0.18048040
   2.00957382  2.95436618  4.86570324
   2.02928525  4.35616573  4.62223750
   0.57315238 28.71758755 -2.82061455
   7.50573968 28.36864650  0.52874005
   3.47815765 12.00761997  2.21499871
   4.64966851 12.35016709 -1.13556607
   3.44437552  4.35482528  1.53442770
   7.43529081 18.23243037  0.25202539
   7.42129440  5.78252116  4.18637993
   4.71903649  1.51902981  5.30397737
   4.73495618 22.48379515 -0.85635285
   4.66083630 19.99044205 -0.44676789
   0.60732568 20.37981062  3.19369095
   0.59268134  3.64490591  1.24959432
   7.50832132 20.72597663 -0.15815769
   0.68581707  6.13736755  0.83833835
   0.69745396 17.88643572  3.60203877
   3.36632706 22.15235875  2.49900679
   3.45868279 19.65918338  2.90652867
   4.64585739  4.01172412  4.88839541
   7.49456405  3.29032615  4.60215947
   3.35278316  1.86218332  1.94630133
   6.76900642 14.91417941 -1.15454222
   1.35738487  9.44092352  2.23716058
   3.73804849 15.27153146 -1.36194921
   0.32251233 25.45249542  0.75863159
   2.68480469 31.28900720 -2.83969857
   3.73177677  9.43179819 -0.90960402
   7.75833085 31.63602042 -3.04628272
   5.39409742 25.79913135  0.54796472
   0.31436240 31.29057854  0.30292919
   4.40153985 14.92519959  1.98824146
   6.76491700  9.09213664  5.58782836
   5.38623586 30.93450863  0.51111876
   4.38788488  9.08509314  2.44004003
   1.36737006 14.57870254  2.19827650
   2.69111233 25.46083230  3.90099338
   7.76207875 25.79583783 -2.59352283
   7.44098078 29.94409295 -1.79667806
   6.67750496 29.71621247 -0.67651238
   7.44380599 26.79658957  2.85726034
   4.71635439 13.23393960  3.23942936
   5.47370765 11.00210542  0.07017827
   1.40023104 27.36951152 -1.61492504
   5.47861133 13.00642025  4.36051006
   4.70881152 10.77606141  1.18963879
   2.65420294 13.35657478  1.01014425
   0.63788430 27.14259408 -0.49384699
   1.39701582 29.37733251  2.67688516
   2.65058770 10.66020877  3.42209918
   6.68153220 27.02155645  1.73573945
   0.63371909 29.60173998  1.55587327
   3.41481354 10.43312144  4.54192947
   3.41743767 13.58166110 -0.11073146
   6.10557114  0.50367576  2.00065084
   6.11711414 23.50632824  2.44896479
   6.05052871 16.52097697  3.64912400
   6.03869686  7.48690949  0.78476346
   1.97646765 23.85667399 -0.89982074
   2.08753844 16.87135838  0.29690947
   1.96418594  0.16358987  5.34810861
   2.07528272  7.14714775  4.13943859
   5.05064284 -0.52631425  6.68317201
   7.22266665  0.88160969  3.97928306
   7.23573165 23.13308094  0.47019234
   4.93390120 17.58385316 -1.07410864
   4.91776732  6.41980471  5.51103289
   3.02749435 24.19901597  1.12299447
   7.10622481 16.18385446  1.62841777
   7.09088667  7.82757590  2.80742786
   1.03287847 15.84022538  4.97963194
   0.86259620 22.78788008  3.82294705
   0.84340658  1.23478738  0.62093226
   3.19291971  6.76410874  2.16153152
   5.06372797 24.53176288 -2.23167605
   3.01807564 -0.18184338  3.32747880
   1.02586225  8.18186920 -0.54039062
   3.20657102 17.25001881  2.27422328
 


--------------------------------------------------------------------------------------------------------


 k-point  1 :   0.0000 0.0000 0.0000  plane waves:   58715
 k-point  2 :   0.3333 0.0000 0.0000  plane waves:   58740
 k-point  3 :   0.0000-0.0000 0.2500  plane waves:   58687
 k-point  4 :   0.3333-0.0000 0.2500  plane waves:   58721
 k-point  5 :  -0.3333-0.0000 0.2500  plane waves:   58718
 k-point  6 :   0.0000-0.0000 0.5000  plane waves:   58674
 k-point  7 :   0.3333-0.0000 0.5000  plane waves:   58616

 maximum and minimum number of plane-waves per node :     14718    14624

 maximum number of plane-waves:     58740
 maximum index in each direction: 
   IXMAX=   16   IYMAX=   65   IZMAX=   13
   IXMIN=  -16   IYMIN=  -65   IZMIN=  -13


 real space projection operators:
  total allocation   :      11569.59 KBytes
  max/ min on nodes  :       2966.73       2815.09


 parallel 3D FFT for wavefunctions:
    minimum data exchange during FFTs selected (reduces bandwidth)
 parallel 3D FFT for charge:
    minimum data exchange during FFTs selected (reduces bandwidth)


 total amount of memory used by VASP MPI-rank0    93292. kBytes
=======================================================================

   base      :      30000. kBytes
   nonlr-proj:       5937. kBytes
   fftplans  :       5303. kBytes
   grid      :       9424. kBytes
   one-center:        606. kBytes
   wavefun   :      42022. kBytes
 
     INWAV:  cpu time    0.0001: real time    0.0001
 Broyden mixing: mesh for mixing (old mesh)
   NGX = 33   NGY =131   NGZ = 27
  (NGX  =100   NGY  =400   NGZ  = 80)
  gives a total of 116721 points

 initial charge density was supplied:
 charge density of overlapping atoms calculated
 number of electron     616.0000000 magnetization 
 keeping initial charge density in first step


--------------------------------------------------------------------------------------------------------


 Maximum index for non-local projection operator          603
 Maximum index for augmentation-charges          287 (set IRDMAX)


--------------------------------------------------------------------------------------------------------


 First call to EWALD:  gamma=   0.147
 Maximum number of real-space cells 4x 1x 5
 Maximum number of reciprocal cells 2x 7x 2

    FEWALD:  cpu time    0.0146: real time    0.0146


--------------------------------------- Iteration      1(   1)  ---------------------------------------


    POTLOK:  cpu time    0.0987: real time    0.1398
    SETDIJ:  cpu time    0.0310: real time    0.0311
    EDDIAG:  cpu time    3.3174: real time    3.3697
  RMM-DIIS:  cpu time    4.2755: real time    4.2810
    ORTHCH:  cpu time    0.7828: real time    0.7833
       DOS:  cpu time    0.0047: real time    0.0053
    --------------------------------------------
      LOOP:  cpu time    8.5102: real time    8.6103

 eigenvalue-minimisations  :  2800
 total energy-change (2. order) : 0.5882462E+04  (-0.2747749E+05)
 number of electron     616.0000000 magnetization 
 augmentation part      616.0000000 magnetization 

 Free energy of the ion-electron system (eV)
  ---------------------------------------------------
  alpha Z        PSCENC =      1098.34130355
  Ewald energy   TEWEN  =    -10928.10431047
  -Hartree energ DENC   =    -19099.11529489
  -exchange      EXHF   =         0.00000000
  -V(xc)+E(xc)   XCENC  =      2279.88064404
  PAW double counting   =     25034.14638475   -25847.60581054
  entropy T*S    EENTRO =        -0.05729565
  eigenvalues    EBANDS =       911.29684681
  atomic energy  EATOM  =     32433.67991533
  Solvation  Ediel_sol  =         0.00000000
  ---------------------------------------------------
  free energy    TOTEN  =      5882.46238294 eV

  energy without entropy =     5882.51967858  energy(sigma->0) =     5882.49103076


--------------------------------------------------------------------------------------------------------




--------------------------------------- Iteration      1(   2)  ---------------------------------------


    EDDIAG:  cpu time    3.2486: real time    3.2531
  RMM-DIIS:  cpu time    4.2389: real time    4.2447
    ORTHCH:  cpu time    0.7848: real time    0.7859
       DOS:  cpu time    0.0034: real time    0.0033
    --------------------------------------------
      LOOP:  cpu time    8.2756: real time    8.2870

 eigenvalue-minimisations  :  2800
 total energy-change (2. order) :-0.3894054E+04  (-0.6681063E+04)
 number of electron     616.0000000 magnetization 
 augmentation part      616.0000000 magnetization 

 Free energy of the ion-electron system (eV)
  ---------------------------------------------------
  alpha Z        PSCENC =      1098.34130355
  Ewald energy   TEWEN  =    -10928.10431047
  -Hartree energ DENC   =    -19099.11529489
  -exchange      EXHF   =         0.00000000
  -V(xc)+E(xc)   XCENC  =      2279.88064404
  PAW double counting   =     25034.14638475   -25847.60581054
  entropy T*S    EENTRO =        -0.03420764
  eigenvalues    EBANDS =     -2982.77999667
  atomic energy  EATOM  =     32433.67991533
  Solvation  Ediel_sol  =         0.00000000
  ---------------------------------------------------
  free energy    TOTEN  =      1988.40862746 eV

  energy without entropy =     1988.44283510  energy(sigma->0) =     1988.42573128


--------------------------------------------------------------------------------------------------------




--------------------------------------- Iteration      1(   3)  ---------------------------------------


    EDDIAG:  cpu time    3.2611: real time    3.2649
  RMM-DIIS:  cpu time    4.2285: real time    4.2349
    ORTHCH:  cpu time    0.7844: real time    0.7857
       DOS:  cpu time    0.0033: real time    0.0033
    --------------------------------------------
      LOOP:  cpu time    8.2774: real time    8.2889

 eigenvalue-minimisations  :  2800
 total energy-change (2. order) :-0.2014161E+04  (-0.2317328E+04)
 number of electron     616.0000000 magnetization 
 augmentation part      616.0000000 magnetization 

 Free energy of the ion-electron system (eV)
  ---------------------------------------------------
  alpha Z        PSCENC =      1098.34130355
  Ewald energy   TEWEN  =    -10928.10431047
  -Hartree energ DENC   =    -19099.11529489
  -exchange      EXHF   =         0.00000000
  -V(xc)+E(xc)   XCENC  =      2279.88064404
  PAW double counting   =     25034.14638475   -25847.60581054
  entropy T*S    EENTRO =        -0.02996315
  eigenvalues    EBANDS =     -4996.94540602
  atomic energy  EATOM  =     32433.67991533
  Solvation  Ediel_sol  =         0.00000000
  ---------------------------------------------------
  free energy    TOTEN  =       -25.75253740 eV

  energy without entropy =      -25.72257424  energy(sigma->0) =      -25.73755582


--------------------------------------------------------------------------------------------------------




--------------------------------------- Iteration      1(   4)  ---------------------------------------


    EDDIAG:  cpu time    3.2336: real time    3.2380
  RMM-DIIS:  cpu time    4.2306: real time    4.2361
    ORTHCH:  cpu time    0.7857: real time    0.7867
       DOS:  cpu time    0.0033: real time    0.0032
    --------------------------------------------
      LOOP:  cpu time    8.2532: real time    8.2640

 eigenvalue-minimisations  :  2800
 total energy-change (2. order) :-0.8014513E+03  (-0.7561836E+03)
 number of electron     616.0000000 magnetization 
 augmentation part      616.0000000 magnetization 

 Free energy of the ion-electron system (eV)
  ---------------------------------------------------
  alpha Z        PSCENC =      1098.34130355
  Ewald energy   TEWEN  =    -10928.10431047
  -Hartree energ DENC   =    -19099.11529489
  -exchange      EXHF   =         0.00000000
  -V(xc)+E(xc)   XCENC  =      2279.88064404
  PAW double counting   =     25034.14638475   -25847.60581054
  entropy T*S    EENTRO =        -0.01040486
  eigenvalues    EBANDS =     -5798.41625889
  atomic energy  EATOM  =     32433.67991533
  Solvation  Ediel_sol  =         0.00000000
  ---------------------------------------------------
  free energy    TOTEN  =      -827.20383197 eV

  energy without entropy =     -827.19342711  energy(sigma->0) =     -827.19862954


--------------------------------------------------------------------------------------------------------




--------------------------------------- Iteration      1(   5)  ---------------------------------------


    EDDIAG:  cpu time    3.2334: real time    3.2370
  RMM-DIIS:  cpu time    4.2323: real time    4.2365
    ORTHCH:  cpu time    0.7833: real time    0.7843
       DOS:  cpu time    0.0031: real time    0.0031
    --------------------------------------------
      LOOP:  cpu time    8.2522: real time    8.2610

 eigenvalue-minimisations  :  2800
 total energy-change (2. order) :-0.2662016E+03  (-0.2360718E+03)
 number of electron     616.0000000 magnetization 
 augmentation part      616.0000000 magnetization 

 Free energy of the ion-electron system (eV)
  ---------------------------------------------------
  alpha Z        PSCENC =      1098.34130355
  Ewald energy   TEWEN  =    -10928.10431047
  -Hartree energ DENC   =    -19099.11529489
  -exchange      EXHF   =         0.00000000
  -V(xc)+E(xc)   XCENC  =      2279.88064404
  PAW double counting   =     25034.14638475   -25847.60581054
  entropy T*S    EENTRO =        -0.00991587
  eigenvalues    EBANDS =     -6064.61837640
  atomic energy  EATOM  =     32433.67991533
  Solvation  Ediel_sol  =         0.00000000
  ---------------------------------------------------
  free energy    TOTEN  =     -1093.40546050 eV

  energy without entropy =    -1093.39554463  energy(sigma->0) =    -1093.40050256


--------------------------------------------------------------------------------------------------------




--------------------------------------- Iteration      1(   6)  ---------------------------------------


    EDDIAG:  cpu time    3.2305: real time    3.2349
  RMM-DIIS:  cpu time    4.2337: real time    4.2387
    ORTHCH:  cpu time    0.7838: real time    0.7838
       DOS:  cpu time    0.0015: real time    0.0015
    --------------------------------------------
      LOOP:  cpu time    8.2495: real time    8.2589

 eigenvalue-minimisations  :  2800
 total energy-change (2. order) :-0.8796160E+02  (-0.7736619E+02)
 number of electron     616.0000000 magnetization 
 augmentation part      616.0000000 magnetization 

 Free energy of the ion-electron system (eV)
  ---------------------------------------------------
  alpha Z        PSCENC =      1098.34130355
  Ewald energy   TEWEN  =    -10928.10431047
  -Hartree energ DENC   =    -19099.11529489
  -exchange      EXHF   =         0.00000000
  -V(xc)+E(xc)   XCENC  =      2279.88064404
  PAW double counting   =     25034.14638475   -25847.60581054
  entropy T*S    EENTRO =        -0.00000000
  eigenvalues    EBANDS =     -6152.58989097
  atomic energy  EATOM  =     32433.67991533
  Solvation  Ediel_sol  =         0.00000000
  ---------------------------------------------------
  free energy    TOTEN  =     -1181.36705920 eV

  energy without entropy =    -1181.36705920  energy(sigma->0) =    -1181.36705920


--------------------------------------------------------------------------------------------------------




--------------------------------------- Iteration      1(   7)  ---------------------------------------


    EDDIAG:  cpu time    3.2318: real time    3.2358
  RMM-DIIS:  cpu time    4.2311: real time    4.2360
    ORTHCH:  cpu time    0.7818: real time    0.7829
       DOS:  cpu time    0.0019: real time    0.0019
    --------------------------------------------
      LOOP:  cpu time    8.2466: real time    8.2565

 eigenvalue-minimisations  :  2800
 total energy-change (2. order) :-0.3148667E+02  (-0.2810644E+02)
 number of electron     616.0000000 magnetization 
 augmentation part      616.0000000 magnetization 

 Free energy of the ion-electron system (eV)
  ---------------------------------------------------
  alpha Z        PSCENC =      1098.34130355
  Ewald energy   TEWEN  =    -10928.10431047
  -Hartree energ DENC   =    -19099.11529489
  -exchange      EXHF   =         0.00000000
  -V(xc)+E(xc)   XCENC  =      2279.88064404
  PAW double counting   =     25034.14638475   -25847.60581054
  entropy T*S    EENTRO =        -0.00000000
  eigenvalues    EBANDS =     -6184.07656429
  atomic energy  EATOM  =     32433.67991533
  Solvation  Ediel_sol  =         0.00000000
  ---------------------------------------------------
  free energy    TOTEN  =     -1212.85373252 eV

  energy without entropy =    -1212.85373252  energy(sigma->0) =    -1212.85373252


--------------------------------------------------------------------------------------------------------




--------------------------------------- Iteration      1(   8)  ---------------------------------------


    EDDIAG:  cpu time    3.2300: real time    3.2331
  RMM-DIIS:  cpu time    4.2348: real time    4.2396
    ORTHCH:  cpu time    0.7841: real time    0.7851
       DOS:  cpu time    0.0015: real time    0.0015
    --------------------------------------------
      LOOP:  cpu time    8.2504: real time    8.2593

 eigenvalue-minimisations  :  2800
 total energy-change (2. order) :-0.1166977E+02  (-0.1035365E+02)
 number of electron     616.0000000 magnetization 
 augmentation part      616.0000000 magnetization 

 Free energy of the ion-electron system (eV)
  ---------------------------------------------------
  alpha Z        PSCENC =      1098.34130355
  Ewald energy   TEWEN  =    -10928.10431047
  -Hartree energ DENC   =    -19099.11529489
  -exchange      EXHF   =         0.00000000
  -V(xc)+E(xc)   XCENC  =      2279.88064404
  PAW double counting   =     25034.14638475   -25847.60581054
  entropy T*S    EENTRO =        -0.00000000
  eigenvalues    EBANDS =     -6195.74633915
  atomic energy  EATOM  =     32433.67991533
  Solvation  Ediel_sol  =         0.00000000
  ---------------------------------------------------
  free energy    TOTEN  =     -1224.52350738 eV

[...]
   -.391E+02 -.460E+02 -.701E+02   0.246E+02 0.618E+02 0.816E+02   0.146E+02 -.158E+02 -.115E+02   -.684E-03 0.206E-02 0.662E-03
   0.258E+03 0.112E+03 -.321E+02   -.263E+03 -.133E+03 0.434E+02   0.575E+01 0.209E+02 -.113E+02   -.777E-03 -.257E-02 0.702E-03
   -.399E+02 -.459E+02 -.701E+02   0.254E+02 0.616E+02 0.816E+02   0.146E+02 -.157E+02 -.115E+02   -.688E-03 0.208E-02 0.661E-03
   -.257E+03 0.113E+03 -.322E+02   0.263E+03 -.134E+03 0.435E+02   -.572E+01 0.208E+02 -.114E+02   0.764E-03 -.258E-02 0.690E-03
   0.257E+03 -.114E+03 0.322E+02   -.263E+03 0.135E+03 -.435E+02   0.568E+01 -.209E+02 0.114E+02   -.759E-03 0.258E-02 -.687E-03
   0.257E+03 -.113E+03 0.320E+02   -.263E+03 0.133E+03 -.433E+02   0.571E+01 -.209E+02 0.114E+02   -.742E-03 0.260E-02 -.699E-03
   -.393E+02 0.464E+02 0.701E+02   0.248E+02 -.622E+02 -.815E+02   0.145E+02 0.158E+02 0.115E+02   -.691E-03 -.207E-02 -.656E-03
   0.394E+02 -.465E+02 -.698E+02   -.248E+02 0.622E+02 0.813E+02   -.146E+02 -.158E+02 -.115E+02   0.664E-03 0.206E-02 0.653E-03
   0.397E+02 0.457E+02 0.704E+02   -.253E+02 -.615E+02 -.819E+02   -.145E+02 0.158E+02 0.115E+02   0.674E-03 -.205E-02 -.668E-03
   0.732E+02 0.113E+03 -.134E+02   -.771E+02 -.113E+03 0.152E+02   0.389E+01 0.102E+00 -.184E+01   -.555E-06 -.754E-04 -.339E-03
   0.731E+02 -.112E+03 0.132E+02   -.770E+02 0.112E+03 -.151E+02   0.389E+01 -.957E-01 0.184E+01   0.103E-04 0.101E-03 0.319E-03
   -.732E+02 0.112E+03 -.132E+02   0.770E+02 -.112E+03 0.150E+02   -.387E+01 0.102E+00 -.183E+01   0.299E-05 -.661E-04 -.311E-03
   -.736E+02 -.112E+03 0.135E+02   0.775E+02 0.112E+03 -.154E+02   -.392E+01 -.917E-01 0.186E+01   -.308E-04 0.424E-04 0.288E-03
   -.731E+02 -.112E+03 0.130E+02   0.769E+02 0.113E+03 -.148E+02   -.384E+01 -.107E+00 0.180E+01   0.239E-05 0.831E-04 0.332E-03
   0.726E+02 0.112E+03 -.131E+02   -.764E+02 -.112E+03 0.149E+02   0.382E+01 0.110E+00 -.181E+01   0.170E-04 -.349E-04 -.289E-03
   -.729E+02 0.113E+03 -.132E+02   0.767E+02 -.113E+03 0.150E+02   -.385E+01 0.104E+00 -.183E+01   -.146E-04 -.590E-04 -.298E-03
   0.734E+02 -.113E+03 0.133E+02   -.772E+02 0.113E+03 -.151E+02   0.388E+01 -.106E+00 0.183E+01   0.829E-05 0.496E-04 0.311E-03
   0.138E+03 0.317E+03 0.202E+03   -.159E+03 -.352E+03 -.238E+03   0.215E+02 0.354E+02 0.358E+02   0.735E-03 -.665E-03 0.141E-02
   -.597E+02 0.163E+03 -.189E+03   0.831E+02 -.184E+03 0.233E+03   -.234E+02 0.205E+02 -.437E+02   -.767E-03 -.576E-03 -.193E-02
   -.600E+02 -.163E+03 0.190E+03   0.834E+02 0.184E+03 -.233E+03   -.234E+02 -.206E+02 0.437E+02   -.771E-03 0.592E-03 0.195E-02
   0.598E+02 0.163E+03 -.190E+03   -.831E+02 -.184E+03 0.233E+03   0.234E+02 0.206E+02 -.437E+02   0.775E-03 -.534E-03 -.195E-02
   0.600E+02 -.163E+03 0.189E+03   -.835E+02 0.183E+03 -.233E+03   0.235E+02 -.205E+02 0.437E+02   0.795E-03 0.509E-03 0.199E-02
   -.137E+03 -.317E+03 -.202E+03   0.158E+03 0.352E+03 0.238E+03   -.213E+02 -.354E+02 -.359E+02   -.719E-03 0.690E-03 -.141E-02
   -.138E+03 0.316E+03 0.202E+03   0.159E+03 -.351E+03 -.238E+03   -.215E+02 0.353E+02 0.359E+02   -.733E-03 -.639E-03 0.144E-02
   -.138E+03 -.317E+03 -.202E+03   0.159E+03 0.352E+03 0.238E+03   -.215E+02 -.354E+02 -.358E+02   -.743E-03 0.619E-03 -.145E-02
   0.137E+03 0.316E+03 0.202E+03   -.158E+03 -.352E+03 -.238E+03   0.214E+02 0.354E+02 0.358E+02   0.725E-03 -.641E-03 0.144E-02
   0.601E+02 -.163E+03 0.190E+03   -.836E+02 0.183E+03 -.233E+03   0.235E+02 -.205E+02 0.437E+02   0.804E-03 0.573E-03 0.198E-02
   0.609E+02 0.163E+03 -.189E+03   -.846E+02 -.183E+03 0.233E+03   0.237E+02 0.204E+02 -.436E+02   0.799E-03 -.569E-03 -.199E-02
   -.604E+02 -.163E+03 0.189E+03   0.840E+02 0.183E+03 -.233E+03   -.236E+02 -.204E+02 0.437E+02   -.789E-03 0.521E-03 0.197E-02
   0.138E+03 -.316E+03 -.202E+03   -.159E+03 0.351E+03 0.238E+03   0.215E+02 -.353E+02 -.359E+02   0.707E-03 0.711E-03 -.139E-02
   -.137E+03 0.317E+03 0.202E+03   0.158E+03 -.353E+03 -.238E+03   -.214E+02 0.355E+02 0.358E+02   -.715E-03 -.677E-03 0.140E-02
   0.137E+03 -.317E+03 -.202E+03   -.158E+03 0.353E+03 0.238E+03   0.213E+02 -.355E+02 -.359E+02   0.739E-03 0.614E-03 -.145E-02
   -.606E+02 0.163E+03 -.189E+03   0.842E+02 -.183E+03 0.233E+03   -.236E+02 0.205E+02 -.436E+02   -.817E-03 -.504E-03 -.200E-02
 -----------------------------------------------------------------------------------------------
   -.329E-01 -.154E+00 0.600E-01   0.426E-13 -.398E-12 -.568E-12   0.443E-01 0.250E+00 -.795E-01   0.715E-04 0.473E-04 0.675E-04
 
 
 POSITION                                       TOTAL-FORCE (eV/Angst)
 -----------------------------------------------------------------------------------
      7.25919     31.21074     -2.18491         0.004551      0.000849     -0.003597
      6.02833     30.86462     -0.36159         0.002879     -0.001921     -0.000838
      7.26387     25.53006      3.24697         0.001378     -0.002751     -0.000540
      4.89942     14.50018      2.85038        -0.001419      0.001194     -0.001049
      6.12158      9.85274     -0.24344        -0.001470     -0.000789      0.002772
      2.04988     26.22123     -1.92872         0.000177      0.002248     -0.000831
      6.12807     14.15469      4.67526        -0.003188     -0.002502      0.000106
      4.88827      9.50946      1.57896        -0.000547     -0.005149      0.001408
      2.00850     14.50674      1.32504         0.001109     -0.003064     -0.001708
      0.82088     25.87665     -0.10374        -0.001655     -0.001388      0.004783
      2.04387     30.52739      2.99027        -0.001933     -0.002456     -0.000676
      2.00013      9.51184      3.10940         0.002943      0.006755      0.000262
      6.03493     25.87174      1.42136         0.004007     -0.002311      0.004265
      0.81353     30.86806      1.16556        -0.002873      0.000532     -0.003022
      3.23251      9.16711      4.93207         0.000282      0.002012      0.001271
      3.23864     14.84858     -0.49969         0.000678      0.000111     -0.003432
      5.53868      0.95143      0.78479         0.000293     -0.001947     -0.000131
      6.68007      1.34371      2.97472         0.002892     -0.001660     -0.002120
      6.69296     22.66867      1.47343        -0.001641     -0.002902      0.003585
      5.47621     17.35885      4.62517        -0.001578     -0.001250     -0.002347
      5.46172      6.64701     -0.18833         0.000476     -0.001380      0.002715
      2.54460     23.40954      0.31586         0.002051      0.000083     -0.004373
      6.61755     16.97108      2.43431        -0.000745     -0.001410      0.003119
      6.60386      7.03900      2.00170        -0.000108      0.005275     -0.000118
      1.51799     17.31877     -0.91770        -0.003472     -0.006389     -0.000599
      1.40723     23.01594     -1.87636         0.000755     -0.000149      0.001566
      1.39174      1.00578      6.32156         0.001524     -0.003109      0.002009
      2.64613      6.30471      3.16518         0.000117      0.003025     -0.001031
      5.55180     23.05593      3.66454        -0.000236      0.002325     -0.001334
      2.53291      0.60894      4.13221         0.003699     -0.005982      0.000094
      1.50809      6.70198      5.35642         0.000857     -0.000530     -0.005759
      2.65913     17.71184      1.27222        -0.002509     -0.000906     -0.001224
      5.56702      2.41161      0.53887        -0.001856      0.001208     -0.000551
      6.60547      2.80120      2.72809        -0.000021     -0.000130      0.004151
      6.61825     21.21052      1.71645        -0.000585      0.005100      0.001063
      5.55088     18.81679      4.38171        -0.000587     -0.001128      0.002378
      5.53694      5.18944      0.05811        -0.000404      0.003212      0.001206
      2.52498     21.94856      0.55803         0.002395      0.006162      0.002558
      6.58895     18.43181      2.19129        -0.001151     -0.001848     -0.001385
      6.57542      5.57899      2.24748         0.001483      0.004031      0.000695
      1.53919     18.77962     -1.16046        -0.000152     -0.002335     -0.000613
      1.49186     21.55823     -1.63377         0.000623      0.002612      0.001906
      1.47784      2.46309      6.07789         0.000414     -0.000915     -0.001356
      2.56053      4.84739      3.40971        -0.000208      0.001653      0.001224
      5.58071     21.59536      3.90719        -0.003256      0.006908      0.000343
      2.51168      2.06937      3.88701         0.000047     -0.002993      0.000509
      1.52764      5.24137      5.60093        -0.002899      0.005068      0.002127
      2.57345     19.16967      1.03096         0.000764      0.000215      0.001263
      5.07312      2.22621      6.04989        -0.002158     -0.000376     -0.002223
      7.09529      3.69076      3.67462         0.001960     -0.000503      0.000778
      7.10876     20.32307      0.76826         0.001448      0.001876     -0.001143
      5.06041     20.39327     -1.37311        -0.001416      0.001006     -0.001839
      5.04599      3.61074      5.81546        -0.001503      0.004454     -0.003056
      3.01973     21.44486      1.74993         0.002923     -0.004943      0.001593
      7.08195     18.93798      0.99978         0.002520      0.001059     -0.003632
      7.06836      5.07520      3.44008         0.000415     -0.001565      0.000827
      1.04496     18.59405      4.35065        -0.003303     -0.000109     -0.003198
      1.00878     19.97899      4.12013        -0.000310      0.001599     -0.000179
      0.99464      4.04397      0.32261        -0.001206      0.000876      0.002115
      3.04304      3.95554      2.46157        -0.000134      0.002319      0.002102
      5.08737     21.77825     -1.60451         0.000780     -0.004692      0.001743
      3.00594      2.57094      2.69406         0.003603      0.002422     -0.003838
      1.03224      5.42858      0.09035        -0.002633     -0.002853      0.000463
      3.05671     20.05986      1.98026        -0.000394     -0.000115     -0.002260
      6.38450     31.83781     -1.29913        -0.003707     -0.000511     -0.001230
      6.39165     24.90043      2.36056        -0.002113      0.001824      0.002616
      5.77370     15.12731      3.73655         0.002264      0.000451     -0.001799
      5.76309      8.88079      0.69448         0.002350      0.000874      0.001844
      1.69571     25.24931     -0.98917         0.004528     -0.001743     -0.000523
      2.36595     15.47822      0.38627        -0.003972      0.002141     -0.000481
      1.68683     31.49820      2.05054         0.003985     -0.000699      0.000274
      2.35615      8.53979      4.04819        -0.004046     -0.000664      0.001029
      6.07660      3.29454      1.51562        -0.001336     -0.000026     -0.007034
      6.08934     20.71464      2.92800         0.001113     -0.003386      0.002547
      6.07948     19.31255      3.17012         0.001643      0.001844     -0.006113
      6.06644      4.69615      1.27049        -0.002087     -0.002262      0.000142
      2.02280     21.06505     -0.42191         0.000030     -0.002145     -0.001263
      2.04180     19.66294     -0.18048        -0.002566     -0.000489     -0.003884
      2.00957      2.95437      4.86570         0.001725      0.000232     -0.003128
      2.02929      4.35617      4.62224         0.000227     -0.000797     -0.000551
      0.57315     28.71759     -2.82061         0.003859      0.003069      0.000700
      7.50574     28.36865      0.52874        -0.002804      0.004756     -0.001286
      3.47816     12.00762      2.21500         0.000732     -0.001661      0.002005
      4.64967     12.35017     -1.13557         0.004691      0.002556     -0.002315
      3.44438      4.35483      1.53443         0.002003      0.000307     -0.003084
      7.43529     18.23243      0.25203        -0.000096      0.000876      0.001880
      7.42129      5.78252      4.18638         0.000511     -0.002862     -0.000505
      4.71904      1.51903      5.30398         0.000617      0.001244      0.002813
      4.73496     22.48380     -0.85635        -0.003024     -0.000582     -0.000613
      4.66084     19.99044     -0.44677        -0.000392     -0.001974      0.003928
      0.60733     20.37981      3.19369        -0.001244      0.000565     -0.003068
      0.59268      3.64491      1.24959        -0.001574     -0.002027      0.003360
      7.50832     20.72598     -0.15816         0.000398      0.000053     -0.000828
      0.68582      6.13737      0.83834        -0.001903     -0.002124     -0.002156
      0.69745     17.88644      3.60204         0.000142      0.002028      0.002590
      3.36633     22.15236      2.49901         0.001845     -0.001121     -0.002120
      3.45868     19.65918      2.90653         0.000703     -0.002171      0.004405
      4.64586      4.01172      4.88840        -0.000191     -0.001309      0.000920
      7.49456      3.29033      4.60216        -0.000159     -0.002623      0.001819
      3.35278      1.86218      1.94630         0.000495      0.000733      0.002444
      6.76901     14.91418     -1.15454         0.000489      0.000883     -0.004665
      1.35738      9.44092      2.23716        -0.000334     -0.001417      0.005570
      3.73805     15.27153     -1.36195         0.000933      0.002210     -0.004463
      0.32251     25.45250      0.75863         0.000874     -0.001646      0.001877
      2.68480     31.28901     -2.83970         0.001354      0.001328     -0.005525
      3.73178      9.43180     -0.90960         0.000943     -0.001966      0.004331
      7.75833     31.63602     -3.04628         0.002097      0.001116     -0.003736
      5.39410     25.79913      0.54796        -0.000699     -0.000436      0.002928
      0.31436     31.29058      0.30293        -0.000552      0.001855     -0.003655
      4.40154     14.92520      1.98824        -0.003421      0.001207     -0.005566
      6.76492      9.09214      5.58783        -0.000525     -0.000985      0.004960
      5.38624     30.93451      0.51112        -0.001130      0.001928     -0.003734
      4.38788      9.08509      2.44004        -0.003461      0.000155      0.004592
      1.36737     14.57870      2.19828        -0.001837      0.002028     -0.004508
      2.69111     25.46083      3.90099         0.000767     -0.000758      0.005160
      7.76208     25.79584     -2.59352         0.002971     -0.000571      0.004267
      7.44098     29.94409     -1.79668        -0.000031      0.000159      0.000523
      6.67750     29.71621     -0.67651        -0.001639     -0.000427     -0.001124
      7.44381     26.79659      2.85726         0.000057     -0.001858      0.000442
      4.71635     13.23394      3.23943         0.000317      0.000080      0.001112
      5.47371     11.00211      0.07018         0.005709     -0.000685      0.004485
      1.40023     27.36951     -1.61493         0.000210      0.002355      0.000463
      5.47861     13.00642      4.36051         0.002200      0.002095     -0.000281
      4.70881     10.77606      1.18964         0.000974     -0.002870      0.000830
      2.65420     13.35657      1.01014        -0.000449      0.000053     -0.000837
      0.63788     27.14259     -0.49385        -0.000707     -0.001822     -0.001402
      1.39702     29.37733      2.67689         0.001696     -0.000256     -0.001220
      2.65059     10.66021      3.42210        -0.000941      0.000417     -0.000177
      6.68153     27.02156      1.73574        -0.005230     -0.001265      0.003589
      0.63372     29.60174      1.55587         0.000270      0.001910      0.000530
      3.41481     10.43312      4.54193         0.000836     -0.000899     -0.000975
      3.41744     13.58166     -0.11073         0.000199      0.002793     -0.000283
      6.10557      0.50368      2.00065         0.001797      0.001549     -0.001401
      6.11711     23.50633      2.44896         0.003501     -0.000686      0.001590
      6.05053     16.52098      3.64912        -0.004315     -0.000237     -0.000769
      6.03870      7.48691      0.78476        -0.003220     -0.003585      0.000682
      1.97647     23.85667     -0.89982        -0.001724     -0.001634      0.001081
      2.08754     16.87136      0.29691         0.002401      0.001025     -0.000832
      1.96419      0.16359      5.34811        -0.003261     -0.000631     -0.001756
      2.07528      7.14715      4.13944         0.002199     -0.001684      0.000805
      5.05064     -0.52631      6.68317        -0.002647      0.002146     -0.000284
      7.22267      0.88161      3.97928        -0.000615     -0.002296     -0.000256
      7.23573     23.13308      0.47019         0.001154      0.004786     -0.003955
      4.93390     17.58385     -1.07411        -0.000350     -0.003834      0.000742
      4.91777      6.41980      5.51103        -0.000296      0.004605     -0.001712
      3.02749     24.19902      1.12299         0.003520     -0.002401      0.003352
      7.10622     16.18385      1.62842         0.004191      0.000536     -0.003733
      7.09089      7.82758      2.80743         0.001807     -0.003452     -0.001268
      1.03288     15.84023      4.97963        -0.003384      0.006506      0.000549
      0.86260     22.78788      3.82295        -0.000291      0.002531      0.000943
      0.84341      1.23479      0.62093         0.003321     -0.002618     -0.000077
      3.19292      6.76411      2.16153        -0.003308      0.000810      0.003466
      5.06373     24.53176     -2.23168        -0.004367     -0.001140      0.001764
      3.01808     -0.18184      3.32748         0.002179      0.006165      0.001036
      1.02586      8.18187     -0.54039        -0.003980     -0.001862      0.003466
      3.20657     17.25002      2.27422        -0.001406     -0.003428      0.002723
 -----------------------------------------------------------------------------------
    total drift:                                0.011457      0.095420     -0.019481


--------------------------------------------------------------------------------------------------------



  FREE ENERGIE OF THE ION-ELECTRON SYSTEM (eV)
  ---------------------------------------------------
  free  energy   TOTEN  =     -1163.33175741 eV

  energy  without entropy=    -1163.33175741  energy(sigma->0) =    -1163.33175741
 


--------------------------------------------------------------------------------------------------------


    POTLOK:  cpu time    0.1237: real time    0.1238


--------------------------------------------------------------------------------------------------------




--------------------------------------------------------------------------------------------------------


  
 reached required accuracy - stopping structural energy minimisation
 writing wavefunctions
     LOOP+:  cpu time  341.8335: real time  345.7637
    4ORBIT:  cpu time    0.0000: real time    0.0000

 total amount of memory used by VASP MPI-rank0    93292. kBytes
=======================================================================

   base      :      30000. kBytes
   nonlr-proj:       5937. kBytes
   fftplans  :       5303. kBytes
   grid      :       9424. kBytes
   one-center:        606. kBytes
   wavefun   :      42022. kBytes
 
  
  
 General timing and accounting informations for this job:
 ========================================================
  
                  Total CPU time used (sec):      398.879
                            User time (sec):      364.857
                          System time (sec):       34.022
                         Elapsed time (sec):      403.861
  
                   Maximum memory used (kb):     1074188.
                   Average memory used (kb):           0.
  
                          Minor page faults:       359961
                          Major page faults:           11
                 Voluntary context switches:        10190
