       N       E                     dE             d eps       ncg     rms          rms(c)
RMM:   1     0.611216585363E+04    0.61122E+04   -0.26926E+05  2800   0.139E+03
RMM:   2     0.210492261270E+04   -0.40072E+04   -0.66734E+04  2800   0.317E+02
RMM:   3     0.553026014443E+02   -0.20496E+04   -0.23921E+04  2800   0.177E+02
RMM:   4    -0.801373733520E+03   -0.85668E+03   -0.81473E+03  2800   0.131E+02
RMM:   5    -0.108707192291E+04   -0.28570E+03   -0.25437E+03  2800   0.741E+01
RMM:   6    -0.118117775241E+04   -0.94106E+02   -0.82892E+02  2800   0.461E+01
RMM:   7    -0.121433852989E+04   -0.33161E+02   -0.29815E+02  2800   0.270E+01
RMM:   8    -0.122656050823E+04   -0.12222E+02   -0.10905E+02  2800   0.185E+01
RMM:   9    -0.123506491888E+04   -0.85044E+01   -0.80127E+01  7365   0.110E+01
RMM:  10    -0.123526567735E+04   -0.20076E+00   -0.27039E+00  6942   0.211E+00
RMM:  11    -0.123528936172E+04   -0.23684E-01   -0.22982E-01  7233   0.575E-01
RMM:  12    -0.123529001171E+04   -0.64999E-03   -0.89532E-03  7287   0.105E-01    0.575E+01
RMM:  13    -0.116479998122E+04    0.70490E+02   -0.15427E+02  5600   0.162E+01    0.320E+01
RMM:  14    -0.115104982639E+04    0.13750E+02   -0.41559E+01  5600   0.841E+00    0.150E+01
RMM:  15    -0.114998510501E+04    0.10647E+01   -0.98440E+00  5600   0.442E+00    0.498E+00
RMM:  16    -0.114987823359E+04    0.10687E+00   -0.70134E-01  5712   0.140E+00    0.134E+00
RMM:  17    -0.114989159733E+04   -0.13364E-01   -0.15381E-01  5651   0.663E-01    0.419E-01
RMM:  18    -0.114989405221E+04   -0.24549E-02   -0.18081E-02  5643   0.221E-01    0.200E-01
RMM:  19    -0.114989699478E+04   -0.29426E-02   -0.54269E-03  5719   0.106E-01    0.941E-02
RMM:  20    -0.114989723328E+04   -0.23850E-03   -0.18443E-03  5614   0.629E-02    0.613E-02
RMM:  21    -0.114989711149E+04    0.12179E-03   -0.63874E-04  5600   0.388E-02    0.204E-02
RMM:  22    -0.114989704372E+04    0.67771E-04   -0.12695E-04  5633   0.147E-02    0.137E-02
RMM:  23    -0.114989701156E+04    0.32153E-04   -0.69982E-05  5588   0.111E-02    0.623E-03
RMM:  24    -0.114989701373E+04   -0.21649E-05   -0.86087E-06  4647   0.380E-03    0.354E-03
RMM:  25    -0.114989701415E+04   -0.42067E-06   -0.32242E-06  3797   0.247E-03
   1 F= -.11635030E+04 E0= -.11635030E+04  d E =-.116350E+04
