 vasp.6.0.8 29Jun18 (build Mar 14 2019 11:44:20) complex                        
  
 executed on             LinuxIFC date 2021.01.06  23:44:52
 running   64 mpi-ranks, with    1 threads/rank
 distrk:  each k-point on   64 cores,    1 groups
 distr:  one band on NCORES_PER_BAND=   4 cores,   16 groups


--------------------------------------------------------------------------------------------------------


 INCAR:
 POTCAR:    PAW_PBE C 08Apr2002                   
 POTCAR:    PAW_PBE Zn 06Sep2000                  
 POTCAR:    PAW_PBE H 15Jun2001                   
 POTCAR:    PAW_PBE N 08Apr2002                   
 POTCAR:    PAW_PBE O 08Apr2002                   
 POTCAR:    PAW_PBE C 08Apr2002                   
   VRHFIN =C: s2p2                                                              
   LEXCH  = PE                                                                  
   EATOM  =   147.1560 eV,   10.8157 Ry                                         
                                                                                
   TITEL  = PAW_PBE C 08Apr2002                                                 
   LULTRA =        F    use ultrasoft PP ?                                      
   IUNSCR =        1    unscreen: 0-lin 1-nonlin 2-no                           
   RPACOR =    1.200    partial core radius                                     
   POMASS =   12.011; ZVAL   =    4.000    mass and valenz                      
   RCORE  =    1.500    outmost cutoff radius                                   
   RWIGS  =    1.630; RWIGS  =    0.863    wigner-seitz radius (au A)           
   ENMAX  =  400.000; ENMIN  =  300.000 eV                                      
   ICORE  =        2    local potential                                         
   LCOR   =        T    correct aug charges                                     
   LPAW   =        T    paw PP                                                  
   EAUG   =  644.873                                                            
   DEXC   =    0.000                                                            
   RMAX   =    1.529    core radius for proj-oper                               
   RAUG   =    1.300    factor for augmentation sphere                          
   RDEP   =    1.501    radius for radial grids                                 
   RDEPT  =    1.300    core radius for aug-charge                              
                                                                                
   Atomic configuration                                                         
    4 entries                                                                   
     n  l   j            E        occ.                                          
     1  0  0.50      -273.3789   2.0000                                         
     2  0  0.50       -13.7508   2.0000                                         
     2  1  0.50        -5.2854   2.0000                                         
     3  2  1.50        -5.4423   0.0000                                         
   Description                                                                  
     l       E           TYP  RCUT    TYP  RCUT                                 
     0    -13.7508458     23  1.200                                             
     0     -8.2022199     23  1.200                                             
     1     -5.2854383     23  1.500                                             
     1     34.0145650     23  1.500                                             
     2     -5.4423304      7  1.500                                             
  local pseudopotential read in
  partial core-charges read in
  partial kinetic energy density read in
  atomic valenz-charges read in
  non local Contribution for L=           0  read in
    real space projection operators read in
  non local Contribution for L=           0  read in
    real space projection operators read in
  non local Contribution for L=           1  read in
    real space projection operators read in
  non local Contribution for L=           1  read in
    real space projection operators read in
    PAW grid and wavefunctions read in
 
   number of l-projection  operators is LMAX  =           4
   number of lm-projection operators is LMMAX =           8
 
 POTCAR:    PAW_PBE Zn 06Sep2000                  
   VRHFIN =Zn: d10 p2                                                           
   LEXCH  = PE                                                                  
   EATOM  =  1748.8345 eV,  128.5357 Ry                                         
                                                                                
   TITEL  = PAW_PBE Zn 06Sep2000                                                
   LULTRA =        F    use ultrasoft PP ?                                      
   IUNSCR =        1    unscreen: 0-lin 1-nonlin 2-no                           
   RPACOR =    2.000    partial core radius                                     
   POMASS =   65.390; ZVAL   =   12.000    mass and valenz                      
   RCORE  =    2.300    outmost cutoff radius                                   
   RWIGS  =    2.400; RWIGS  =    1.270    wigner-seitz radius (au A)           
   ENMAX  =  276.723; ENMIN  =  207.542 eV                                      
   RCLOC  =    1.828    cutoff for local pot                                    
   LCOR   =        T    correct aug charges                                     
   LPAW   =        T    paw PP                                                  
   EAUG   =  575.892                                                            
   DEXC   =    0.000                                                            
   RMAX   =    2.347    core radius for proj-oper                               
   RAUG   =    1.300    factor for augmentation sphere                          
   RDEP   =    2.324    radius for radial grids                                 
   RDEPT  =    1.788    core radius for aug-charge                              
                                                                                
   Atomic configuration                                                         
    9 entries                                                                   
     n  l   j            E        occ.                                          
     1  0  0.50     -9524.6913   2.0000                                         
     2  0  0.50     -1158.1882   2.0000                                         
     2  1  1.50     -1003.8506   6.0000                                         
     3  0  0.50      -129.2194   2.0000                                         
     3  1  1.50       -83.3890   6.0000                                         
     3  2  2.50       -10.1410  10.0000                                         
     4  0  0.50        -5.9785   2.0000                                         
     4  1  0.50        -4.0817   0.0000                                         
     4  3  2.50        -1.3606   0.0000                                         
   Description                                                                  
     l       E           TYP  RCUT    TYP  RCUT                                 
     2    -10.1410010     23  2.300                                             
     2    -11.5015836     23  2.300                                             
     0     -5.9785163     23  2.300                                             
     0      1.1858015     23  2.300                                             
     1     -2.7211652     23  2.300                                             
     1     13.2444212     23  2.300                                             
  local pseudopotential read in
  partial core-charges read in
  partial kinetic energy density read in
  atomic valenz-charges read in
  non local Contribution for L=           2  read in
    real space projection operators read in
  non local Contribution for L=           2  read in
    real space projection operators read in
  non local Contribution for L=           0  read in
    real space projection operators read in
  non local Contribution for L=           0  read in
    real space projection operators read in
  non local Contribution for L=           1  read in
    real space projection operators read in
  non local Contribution for L=           1  read in
    real space projection operators read in
    PAW grid and wavefunctions read in
 
   number of l-projection  operators is LMAX  =           6
   number of lm-projection operators is LMMAX =          18
 
 POTCAR:    PAW_PBE H 15Jun2001                   
   VRHFIN =H: ultrasoft test                                                    
   LEXCH  = PE                                                                  
   EATOM  =    12.4884 eV,    0.9179 Ry                                         
                                                                                
   TITEL  = PAW_PBE H 15Jun2001                                                 
   LULTRA =        F    use ultrasoft PP ?                                      
   IUNSCR =        0    unscreen: 0-lin 1-nonlin 2-no                           
   RPACOR =    0.000    partial core radius                                     
   POMASS =    1.000; ZVAL   =    1.000    mass and valenz                      
   RCORE  =    1.100    outmost cutoff radius                                   
   RWIGS  =    0.700; RWIGS  =    0.370    wigner-seitz radius (au A)           
   ENMAX  =  250.000; ENMIN  =  200.000 eV                                      
   RCLOC  =    0.701    cutoff for local pot                                    
   LCOR   =        T    correct aug charges                                     
   LPAW   =        T    paw PP                                                  
   EAUG   =  400.000                                                            
   RMAX   =    1.123    core radius for proj-oper                               
   RAUG   =    1.200    factor for augmentation sphere                          
   RDEP   =    1.112    radius for radial grids                                 
   RDEPT  =    0.926    core radius for aug-charge                              
                                                                                
   Atomic configuration                                                         
    2 entries                                                                   
     n  l   j            E        occ.                                          
     1  0  0.50        -6.4927   1.0000                                         
     2  1  0.50        -3.4015   0.0000                                         
   Description                                                                  
     l       E           TYP  RCUT    TYP  RCUT                                 
     0     -6.4927494     23  1.100                                             
     0      6.8029130     23  1.100                                             
     1     -4.0817478     23  1.100                                             
  local pseudopotential read in
  atomic valenz-charges read in
  non local Contribution for L=           0  read in
    real space projection operators read in
  non local Contribution for L=           0  read in
    real space projection operators read in
  non local Contribution for L=           1  read in
    real space projection operators read in
    PAW grid and wavefunctions read in
 
   number of l-projection  operators is LMAX  =           3
   number of lm-projection operators is LMMAX =           5
 
 POTCAR:    PAW_PBE N 08Apr2002                   
   VRHFIN =N: s2p3                                                              
   LEXCH  = PE                                                                  
   EATOM  =   264.5486 eV,   19.4438 Ry                                         
                                                                                
   TITEL  = PAW_PBE N 08Apr2002                                                 
   LULTRA =        F    use ultrasoft PP ?                                      
   IUNSCR =        1    unscreen: 0-lin 1-nonlin 2-no                           
   RPACOR =    1.200    partial core radius                                     
   POMASS =   14.001; ZVAL   =    5.000    mass and valenz                      
   RCORE  =    1.500    outmost cutoff radius                                   
   RWIGS  =    1.400; RWIGS  =    0.741    wigner-seitz radius (au A)           
   ENMAX  =  400.000; ENMIN  =  300.000 eV                                      
   ICORE  =        2    local potential                                         
   LCOR   =        T    correct aug charges                                     
   LPAW   =        T    paw PP                                                  
   EAUG   =  627.112                                                            
   DEXC   =    0.000                                                            
   RMAX   =    1.529    core radius for proj-oper                               
   RAUG   =    1.300    factor for augmentation sphere                          
   RDEP   =    1.514    radius for radial grids                                 
   RDEPT  =    1.338    core radius for aug-charge                              
                                                                                
   Atomic configuration                                                         
    4 entries                                                                   
     n  l   j            E        occ.                                          
     1  0  0.50      -384.7179   2.0000                                         
     2  0  0.50       -18.5828   2.0000                                         
     2  1  0.50        -7.0898   3.0000                                         
     3  2  1.50        -6.8029   0.0000                                         
   Description                                                                  
     l       E           TYP  RCUT    TYP  RCUT                                 
     0    -18.5828119     23  1.200                                             
     0    -13.5018863     23  1.200                                             
     1     -7.0897853     23  1.500                                             
     1      9.5240782     23  1.500                                             
     2     -6.8029130      7  1.500                                             
  local pseudopotential read in
  partial core-charges read in
  partial kinetic energy density read in
  atomic valenz-charges read in
  non local Contribution for L=           0  read in
    real space projection operators read in
  non local Contribution for L=           0  read in
    real space projection operators read in
  non local Contribution for L=           1  read in
    real space projection operators read in
  non local Contribution for L=           1  read in
    real space projection operators read in
    PAW grid and wavefunctions read in
 
   number of l-projection  operators is LMAX  =           4
   number of lm-projection operators is LMMAX =           8
 
 POTCAR:    PAW_PBE O 08Apr2002                   
   VRHFIN =O: s2p4                                                              
   LEXCH  = PE                                                                  
   EATOM  =   432.3788 eV,   31.7789 Ry                                         
                                                                                
   TITEL  = PAW_PBE O 08Apr2002                                                 
   LULTRA =        F    use ultrasoft PP ?                                      
   IUNSCR =        1    unscreen: 0-lin 1-nonlin 2-no                           
   RPACOR =    1.200    partial core radius                                     
   POMASS =   16.000; ZVAL   =    6.000    mass and valenz                      
   RCORE  =    1.520    outmost cutoff radius                                   
   RWIGS  =    1.550; RWIGS  =    0.820    wigner-seitz radius (au A)           
   ENMAX  =  400.000; ENMIN  =  300.000 eV                                      
   ICORE  =        2    local potential                                         
   LCOR   =        T    correct aug charges                                     
   LPAW   =        T    paw PP                                                  
   EAUG   =  605.392                                                            
   DEXC   =    0.000                                                            
   RMAX   =    1.553    core radius for proj-oper                               
   RAUG   =    1.300    factor for augmentation sphere                          
   RDEP   =    1.550    radius for radial grids                                 
   RDEPT  =    1.329    core radius for aug-charge                              
                                                                                
   Atomic configuration                                                         
    4 entries                                                                   
     n  l   j            E        occ.                                          
     1  0  0.50      -514.6923   2.0000                                         
     2  0  0.50       -23.9615   2.0000                                         
     2  1  0.50        -9.0305   4.0000                                         
     3  2  1.50        -9.5241   0.0000                                         
   Description                                                                  
     l       E           TYP  RCUT    TYP  RCUT                                 
     0    -23.9615318     23  1.200                                             
     0     -9.5240782     23  1.200                                             
     1     -9.0304911     23  1.520                                             
     1      8.1634956     23  1.520                                             
     2     -9.5240782      7  1.500                                             
  local pseudopotential read in
  partial core-charges read in
  partial kinetic energy density read in
  kinetic energy density of atom read in
  atomic valenz-charges read in
  non local Contribution for L=           0  read in
    real space projection operators read in
  non local Contribution for L=           0  read in
    real space projection operators read in
  non local Contribution for L=           1  read in
    real space projection operators read in
  non local Contribution for L=           1  read in
    real space projection operators read in
    PAW grid and wavefunctions read in
 
   number of l-projection  operators is LMAX  =           4
   number of lm-projection operators is LMMAX =           8
 
 Optimization of the real space projectors (new method)

 maximal supplied QI-value         = 25.13
 optimisation between [QCUT,QGAM] = [ 12.32, 24.88] = [ 42.47,173.37] Ry 
 Optimized for a Real-space Cutoff    1.06 Angstroem

   l    n(q)    QCUT    max X(q) W(low)/X(q) W(high)/X(q)  e(spline) 
   0      8    12.315   115.676    0.34E-03    0.18E-03    0.23E-06
   0      8    12.315    87.132    0.34E-03    0.18E-03    0.22E-06
   1      7    12.315     4.429    0.45E-03    0.12E-03    0.18E-06
   1      7    12.315     2.733    0.35E-03    0.97E-04    0.15E-06
 Optimization of the real space projectors (new method)

 maximal supplied QI-value         = 16.25
 optimisation between [QCUT,QGAM] = [ 12.51, 25.03] = [ 43.85,175.40] Ry 
 Optimized for a Real-space Cutoff    1.31 Angstroem

   l    n(q)    QCUT    max X(q) W(low)/X(q) W(high)/X(q)  e(spline) 
   2      9    12.514    46.356    0.36E-03    0.54E-03    0.48E-06
   2      9    12.514    41.843    0.37E-03    0.56E-03    0.49E-06
   0     10    12.514    48.958    0.13E-03    0.28E-03    0.23E-06
   0     10    12.514    32.776    0.12E-03    0.26E-03    0.22E-06
   1      9    12.514    17.787    0.44E-03    0.44E-04    0.36E-06
   1      9    12.514    14.435    0.39E-03    0.39E-04    0.32E-06
 Optimization of the real space projectors (new method)

 maximal supplied QI-value         = 34.20
 optimisation between [QCUT,QGAM] = [ 12.31, 24.97] = [ 42.46,174.58] Ry 
 Optimized for a Real-space Cutoff    1.00 Angstroem

   l    n(q)    QCUT    max X(q) W(low)/X(q) W(high)/X(q)  e(spline) 
   0      7    12.313    19.460    0.14E-03    0.42E-03    0.16E-06
   0      7    12.313    12.209    0.12E-03    0.40E-03    0.16E-06
   1      7    12.313     4.655    0.33E-03    0.59E-03    0.89E-07
 Optimization of the real space projectors (new method)

 maximal supplied QI-value         = 25.13
 optimisation between [QCUT,QGAM] = [ 12.32, 24.88] = [ 42.47,173.37] Ry 
 Optimized for a Real-space Cutoff    1.20 Angstroem

   l    n(q)    QCUT    max X(q) W(low)/X(q) W(high)/X(q)  e(spline) 
   0      9    12.315    79.467    0.14E-03    0.22E-04    0.37E-06
   0      9    12.315    66.151    0.14E-03    0.23E-04    0.36E-06
   1      8    12.315    22.077    0.30E-03    0.54E-03    0.45E-06
   1      8    12.315    15.894    0.30E-03    0.55E-03    0.45E-06
 Optimization of the real space projectors (new method)

 maximal supplied QI-value         = 24.76
 optimisation between [QCUT,QGAM] = [ 12.38, 25.00] = [ 42.90,175.06] Ry 
 Optimized for a Real-space Cutoff    1.13 Angstroem

   l    n(q)    QCUT    max X(q) W(low)/X(q) W(high)/X(q)  e(spline) 
   0      8    12.378    20.381    0.16E-03    0.54E-05    0.27E-06
   0      8    12.378    15.268    0.17E-03    0.61E-05    0.29E-06
   1      8    12.378     5.964    0.38E-03    0.23E-03    0.28E-06
   1      8    12.378     5.382    0.33E-03    0.20E-03    0.25E-06
  PAW_PBE C 08Apr2002                   :
 energy of atom  1       EATOM= -147.1560
 kinetic energy error for atom=    0.0057 (will be added to EATOM!!)
  PAW_PBE Zn 06Sep2000                  :
 energy of atom  2       EATOM=-1748.8345
 kinetic energy error for atom=    0.0020 (will be added to EATOM!!)
  PAW_PBE H 15Jun2001                   :
 energy of atom  3       EATOM=  -12.4884
 kinetic energy error for atom=    0.0004 (will be added to EATOM!!)
  PAW_PBE N 08Apr2002                   :
 energy of atom  4       EATOM= -264.5486
 kinetic energy error for atom=    0.0103 (will be added to EATOM!!)
  PAW_PBE O 08Apr2002                   :
 energy of atom  5       EATOM= -432.3788
 kinetic energy error for atom=    0.0168 (will be added to EATOM!!)
 
 
 POSCAR: Zn_H
  positions in direct lattice
  velocities in cartesian coordinates
 exchange correlation table for  LEXCH =        8
   RHO(1)=    0.500       N(1)  =     2000
   RHO(2)=  100.500       N(2)  =     4000
 


--------------------------------------------------------------------------------------------------------


 ion  position               nearest neighbor table
   1  0.898  0.957  0.155- 107 1.08 117 1.34  65 1.40
   2  0.764  0.952  0.427- 112 1.09 118 1.36  65 1.40
   3  0.898  0.798  0.892- 116 1.08 119 1.34  66 1.40
   4  0.602  0.457  0.654- 110 1.08 120 1.34  67 1.40
   5  0.736  0.304  0.118- 111 1.09 121 1.36  68 1.40
   6  0.233  0.804  0.119- 115 1.09 122 1.36  69 1.40
   7  0.736  0.452  0.926- 101 1.09 123 1.36  67 1.40
   8  0.602  0.298  0.391- 113 1.08 124 1.34  68 1.40
   9  0.267  0.452  0.426- 114 1.09 125 1.36  70 1.40
  10  0.100  0.798  0.392- 104 1.08 126 1.34  69 1.40
  11  0.233  0.952  0.927- 105 1.09 127 1.36  71 1.40
  12  0.266  0.304  0.618- 102 1.09 128 1.36  72 1.40
  13  0.764  0.804  0.619- 108 1.09 129 1.36  66 1.40
  14  0.099  0.957  0.654- 109 1.08 130 1.34  71 1.40
  15  0.400  0.298  0.891- 106 1.08 131 1.34  72 1.40
  16  0.400  0.457  0.153- 103 1.08 132 1.34  70 1.40
  17  0.689  0.032  0.139- 141 1.23 133 1.42  33 1.48
  18  0.828  0.050  0.467- 142 1.23 133 1.41  34 1.48
  19  0.829  0.705  0.580- 143 1.23 134 1.41  35 1.48
  20  0.672  0.550  0.966- 144 1.23 135 1.41  36 1.48
  21  0.670  0.205  0.079- 145 1.23 136 1.41  37 1.48
  22  0.309  0.724  0.407- 146 1.23 137 1.42  38 1.48
  23  0.811  0.532  0.639- 147 1.23 135 1.42  39 1.48
  24  0.810  0.224  0.406- 148 1.23 136 1.42  40 1.48
  25  0.192  0.532  0.138- 149 1.23 138 1.42  41 1.48
  26  0.170  0.705  0.079- 150 1.23 137 1.41  42 1.48
  27  0.169  0.051  0.966- 151 1.23 139 1.41  43 1.48
  28  0.330  0.205  0.579- 152 1.23 140 1.41  44 1.48
  29  0.690  0.724  0.906- 153 1.23 134 1.42  45 1.48
  30  0.307  0.032  0.638- 154 1.23 139 1.42  46 1.48
  31  0.191  0.224  0.906- 155 1.23 140 1.42  47 1.48
  32  0.331  0.551  0.465- 156 1.23 138 1.41  48 1.48
  33  0.688  0.077  0.125-  49 1.39  73 1.41  17 1.48
  34  0.817  0.095  0.452-  50 1.39  73 1.41  18 1.48
  35  0.818  0.661  0.594-  51 1.39  74 1.41  19 1.48
  36  0.683  0.595  0.952-  52 1.39  75 1.41  20 1.48
  37  0.682  0.161  0.093-  53 1.39  76 1.41  21 1.48
  38  0.311  0.679  0.420-  54 1.39  77 1.41  22 1.48
  39  0.812  0.577  0.625-  55 1.39  75 1.41  23 1.48
  40  0.811  0.179  0.420-  56 1.39  76 1.41  24 1.48
  41  0.190  0.577  0.124-  57 1.39  78 1.41  25 1.48
  42  0.182  0.661  0.094-  58 1.39  77 1.41  26 1.48
  43  0.181  0.095  0.951-  59 1.39  79 1.41  27 1.48
  44  0.318  0.161  0.593-  60 1.39  80 1.41  28 1.48
  45  0.689  0.679  0.920-  61 1.39  74 1.41  29 1.48
  46  0.309  0.077  0.624-  62 1.39  79 1.41  30 1.48
  47  0.189  0.179  0.920-  63 1.39  80 1.41  31 1.48
  48  0.319  0.595  0.451-  64 1.39  78 1.41  32 1.48
  49  0.626  0.089  0.957-  88 1.09  33 1.39  53 1.41
  50  0.877  0.125  0.603-  99 1.09  34 1.39  56 1.41
  51  0.878  0.631  0.442-  93 1.09  35 1.39  55 1.41
  52  0.623  0.625  0.103-  90 1.09  36 1.39  61 1.41
  53  0.622  0.131  0.942-  98 1.09  37 1.39  49 1.41
  54  0.373  0.667  0.588-  96 1.09  38 1.39  64 1.41
  55  0.874  0.589  0.457-  86 1.09  39 1.39  51 1.41
  56  0.873  0.167  0.588-  87 1.09  40 1.39  50 1.41
  57  0.128  0.589  0.957-  95 1.09  41 1.39  58 1.41
  58  0.123  0.631  0.942-  91 1.09  42 1.39  57 1.41
  59  0.122  0.125  0.103-  92 1.09  43 1.39  63 1.41
  60  0.377  0.131  0.441-  85 1.09  44 1.39  62 1.41
  61  0.627  0.667  0.088-  89 1.09  45 1.39  52 1.41
  62  0.372  0.089  0.457- 100 1.09  46 1.39  60 1.41
  63  0.126  0.167  0.088-  94 1.09  47 1.39  59 1.41
  64  0.378  0.625  0.603-  97 1.09  48 1.39  54 1.41
  65  0.799  0.979  0.299-   1 1.40   2 1.40 133 1.43
  66  0.800  0.777  0.747-   3 1.40  13 1.40 134 1.43
  67  0.701  0.479  0.798-   4 1.40   7 1.40 135 1.43
  68  0.700  0.277  0.246-   8 1.40   5 1.40 136 1.43
  69  0.198  0.777  0.247-  10 1.40   6 1.40 137 1.43
  70  0.302  0.479  0.298-  16 1.40   9 1.40 138 1.43
  71  0.197  0.979  0.799-  14 1.40  11 1.40 139 1.43
  72  0.302  0.277  0.746-  15 1.40  12 1.40 140 1.43
  73  0.751  0.107  0.281-  33 1.41  34 1.41  76 1.42
  74  0.752  0.649  0.765-  45 1.41  35 1.41  75 1.42
  75  0.749  0.607  0.781-  39 1.41  36 1.41  74 1.42
  76  0.748  0.149  0.264-  40 1.41  37 1.41  73 1.42
  77  0.249  0.649  0.264-  38 1.41  42 1.41  78 1.42
  78  0.252  0.607  0.280-  41 1.41  48 1.41  77 1.42
  79  0.247  0.107  0.780-  46 1.41  43 1.41  80 1.42
  80  0.251  0.149  0.764-  47 1.41  44 1.41  79 1.42
  81  0.060  0.878  0.023- 127 1.99 122 2.00 119 2.02 117 2.02
  82  0.937  0.878  0.523- 118 1.99 129 1.99 130 2.02 126 2.02
  83  0.439  0.378  0.522- 125 1.99 128 2.00 124 2.02 120 2.02
  84  0.563  0.378  0.022- 123 1.99 121 2.00 132 2.02 131 2.02
  85  0.427  0.140  0.311-  60 1.09
  86  0.919  0.565  0.338-  55 1.09
  87  0.918  0.191  0.707-  56 1.09
  88  0.581  0.065  0.838-  49 1.09
  89  0.582  0.691  0.207-  61 1.09
  90  0.573  0.615  0.234-  52 1.09
  91  0.073  0.641  0.811-  58 1.09
  92  0.072  0.115  0.233-  59 1.09
  93  0.928  0.641  0.312-  51 1.09
  94  0.082  0.191  0.207-  63 1.09
  95  0.084  0.565  0.837-  57 1.09
  96  0.418  0.691  0.707-  54 1.09
  97  0.428  0.615  0.733-  64 1.09
  98  0.572  0.141  0.811-  53 1.09
  99  0.926  0.115  0.734-  50 1.09
 100  0.416  0.065  0.337-  62 1.09
 101  0.807  0.456  0.061-   7 1.09
 102  0.196  0.299  0.484-  12 1.09
 103  0.454  0.468  0.028-  16 1.08
 104  0.046  0.788  0.517-  10 1.08
 105  0.303  0.957  0.062-  11 1.09
 106  0.454  0.288  0.016-  15 1.08
 107  0.952  0.968  0.030-   1 1.08
 108  0.694  0.799  0.485-  13 1.09
 109  0.045  0.968  0.529-  14 1.08
 110  0.548  0.468  0.528-   4 1.08
 111  0.806  0.299  0.984-   5 1.09
 112  0.693  0.956  0.561-   2 1.09
 113  0.548  0.288  0.516-   8 1.08
 114  0.197  0.457  0.561-   9 1.09
 115  0.304  0.799  0.985-   6 1.09
 116  0.952  0.788  0.017-   3 1.08
 117  0.922  0.920  0.195-   1 1.34 118 1.37  81 2.02
 118  0.839  0.916  0.362-   2 1.36 117 1.37  82 1.99
 119  0.922  0.836  0.852-   3 1.34 129 1.37  81 2.02
 120  0.578  0.420  0.694-   4 1.34 123 1.37  83 2.02
 121  0.661  0.340  0.183-   5 1.36 124 1.37  84 2.00
 122  0.158  0.840  0.184-   6 1.36 126 1.37  81 2.00
 123  0.661  0.416  0.861-   7 1.36 120 1.37  84 1.99
 124  0.578  0.336  0.351-   8 1.34 121 1.37  83 2.02
 125  0.342  0.416  0.361-   9 1.36 132 1.37  83 1.99
 126  0.075  0.836  0.352-  10 1.34 122 1.37  82 2.02
 127  0.158  0.916  0.862-  11 1.36 130 1.37  81 1.99
 128  0.342  0.340  0.683-  12 1.36 131 1.37  83 2.00
 129  0.839  0.840  0.684-  13 1.36 119 1.37  82 1.99
 130  0.075  0.920  0.695-  14 1.34 127 1.37  82 2.02
 131  0.424  0.336  0.851-  15 1.34 128 1.37  84 2.02
 132  0.424  0.420  0.194-  16 1.34 125 1.37  84 2.02
 133  0.763  0.022  0.309-  18 1.41  17 1.42  65 1.43
 134  0.764  0.734  0.737-  19 1.41  29 1.42  66 1.43
 135  0.737  0.522  0.808-  20 1.41  23 1.42  67 1.43
 136  0.736  0.234  0.237-  21 1.41  24 1.42  68 1.43
 137  0.234  0.734  0.238-  26 1.41  22 1.42  69 1.43
 138  0.266  0.522  0.307-  32 1.41  25 1.42  70 1.43
 139  0.234  0.022  0.808-  27 1.41  30 1.42  71 1.43
 140  0.265  0.234  0.737-  28 1.41  31 1.42  72 1.43
 141  0.631  0.006  0.011-  17 1.23
 142  0.893  0.039  0.608-  18 1.23
 143  0.894  0.717  0.438-  19 1.23
 144  0.608  0.539  0.108-  20 1.23
 145  0.605  0.217  0.938-  21 1.23
 146  0.367  0.750  0.536-  22 1.23
 147  0.869  0.506  0.510-  23 1.23
 148  0.869  0.250  0.534-  24 1.23
 149  0.134  0.506  0.009-  25 1.23
 150  0.105  0.717  0.938-  26 1.23
 151  0.104  0.039  0.107-  27 1.23
 152  0.395  0.216  0.438-  28 1.23
 153  0.631  0.750  0.035-  29 1.23
 154  0.365  0.005  0.509-  30 1.23
 155  0.133  0.250  0.035-  31 1.23
 156  0.396  0.539  0.607-  32 1.23
 

IMPORTANT INFORMATION: All symmetrisations will be switched off!
NOSYMM: (Re-)initialisation of all symmetry stuff for point group C_1.


----------------------------------------------------------------------------------------

                                     Primitive cell                                     

  volume of cell :    1911.4773

  direct lattice vectors                    reciprocal lattice vectors
     8.699023839 -0.000657463 -0.001569957     0.114955425 -0.000009304 -0.000004926
     0.002516758 32.747321476 -3.117724614     0.000002843  0.030808428  0.002852567
     0.000239385 -0.626807854  6.769680296     0.000027969  0.014188585  0.149031190

  length of vectors
     8.699024005 32.895399024  6.798636588     0.114955426  0.030940207  0.149705084

  position of ions in fractional coordinates (direct lattice)
     0.897682595  0.957423888  0.154677970
     0.763575782  0.951827863  0.427287466
     0.897992644  0.798422992  0.891788544
     0.602164817  0.457358031  0.653580069
     0.735563011  0.303856950  0.117848694
     0.233348522  0.803988679  0.118901761
     0.736090381  0.451786868  0.926425589
     0.601724346  0.298376642  0.390833183
     0.266927594  0.451944215  0.426492547
     0.099605156  0.798435607  0.391864185
     0.232874838  0.951974798  0.927345105
     0.266429515  0.303907107  0.617845439
     0.764080562  0.803910499  0.618808305
     0.099215488  0.957390605  0.654086039
     0.400209864  0.298382417  0.890877590
     0.400359469  0.457360820  0.153122028
     0.688998239  0.032145917  0.139279420
     0.828056990  0.050498013  0.466561821
     0.829423858  0.705301798  0.579512509
     0.671912456  0.550413090  0.966001953
     0.670102640  0.205214686  0.078927080
     0.308724605  0.723712394  0.406802186
     0.810813354  0.532164881  0.638638093
     0.809789072  0.223517345  0.405744622
     0.192205978  0.532181479  0.137885117
     0.169789053  0.705325978  0.079423237
     0.168924048  0.050620093  0.965809672
     0.330171766  0.205224782  0.578847313
     0.689870214  0.723514397  0.906419550
     0.307490476  0.032134778  0.638282937
     0.191128920  0.223694820  0.906040041
     0.330918744  0.550571700  0.465356433
     0.687823157  0.076611502  0.125221800
     0.816673392  0.094799885  0.451774814
     0.817989296  0.660969838  0.593829331
     0.683162457  0.594735322  0.951527610
     0.681677440  0.160897250  0.093490950
     0.310805622  0.679220667  0.420326422
     0.811973282  0.576655256  0.624970514
     0.810710835  0.179060033  0.419895139
     0.190269273  0.576675924  0.124349306
     0.182329744  0.661001073  0.093536484
     0.181169761  0.094924362  0.951214727
     0.317549961  0.160911124  0.593148377
     0.688973591  0.679036687  0.920261732
     0.309491248  0.076611306  0.624437053
     0.189051083  0.179215335  0.919844651
     0.318661050  0.594895940  0.451125859
     0.625544331  0.088812247  0.957414493
     0.876704551  0.124876804  0.603194685
     0.877908083  0.630931279  0.442178113
     0.623055510  0.624768048  0.103063286
     0.621798076  0.130810644  0.941975650
     0.373488770  0.667016869  0.587911958
     0.874248777  0.588914621  0.457326013
     0.873149146  0.166862695  0.587630157
     0.127712297  0.588869584  0.956683530
     0.123110051  0.630882929  0.941664323
     0.121829117  0.125068332  0.102851168
     0.376742325  0.130759074  0.441439595
     0.626543904  0.666773573  0.087804121
     0.372068955  0.088754258  0.456669517
     0.126367971  0.167066148  0.087538145
     0.378033509  0.625005025  0.602932776
     0.799184292  0.979130699  0.299135168
     0.799801776  0.776643281  0.747121568
     0.700625182  0.479076428  0.798121746
     0.699847098  0.276588905  0.246140656
     0.197943434  0.776706838  0.247262304
     0.302369477  0.479174500  0.297890653
     0.197362018  0.979198358  0.798731629
     0.301917937  0.276637438  0.746237017
     0.750523318  0.106566234  0.280770363
     0.751898154  0.649134986  0.764675489
     0.749253739  0.606567657  0.780672275
     0.747821788  0.149115443  0.264456637
     0.248696605  0.649237045  0.264425056
     0.252324757  0.606664538  0.280253551
     0.247483034  0.106636264  0.780202546
     0.251147525  0.149197535  0.764115115
     0.060080606  0.877948190  0.023052858
     0.936826558  0.877903547  0.523026885
     0.439470855  0.377880399  0.522058963
     0.562783625  0.377886402  0.022228176
     0.426716605  0.140434652  0.310814379
     0.918858424  0.565110280  0.337996700
     0.917943190  0.190700895  0.706674931
     0.580929382  0.064974512  0.838213480
     0.581685465  0.690567581  0.206968904
     0.573351252  0.614983187  0.233581703
     0.073167172  0.640599238  0.811107864
     0.071915577  0.115378736  0.233489889
     0.927606203  0.640713038  0.311653895
     0.082183513  0.190953855  0.206786788
     0.083612777  0.565001564  0.837252429
     0.417662664  0.690877676  0.707310330
     0.427990200  0.615277296  0.733475574
     0.572040499  0.140546734  0.811358579
     0.926413762  0.115137682  0.733838980
     0.416108941  0.064855478  0.337347621
     0.806664694  0.456397022  0.060500074
     0.195895829  0.299280284  0.483747641
     0.453976839  0.467798797  0.027536763
     0.045801964  0.787925837  0.517127428
     0.303313956  0.956660738  0.061542771
     0.453972415  0.287889843  0.016230350
     0.951584385  0.967958400  0.029539017
     0.693560040  0.799265367  0.484682636
     0.045475175  0.967840019  0.528600773
     0.548362350  0.467872653  0.528293272
     0.806067443  0.299211045  0.983730423
     0.692925090  0.956433221  0.561286699
     0.547836121  0.287902493  0.516141812
     0.196578255  0.456634558  0.560750710
     0.303905419  0.799366072  0.984839327
     0.951905200  0.787943422  0.017090346
     0.921818050  0.919584556  0.194802249
     0.838711046  0.915742930  0.362289311
     0.921882260  0.836269557  0.851589279
     0.577928990  0.419527178  0.693788807
     0.660752080  0.339993652  0.182927508
     0.158211302  0.840077320  0.183866671
     0.660919233  0.415705742  0.861429898
     0.577816991  0.336221339  0.350644529
     0.341709132  0.415805733  0.361467831
     0.075340877  0.836263226  0.351587033
     0.157981009  0.915843289  0.862434431
     0.341513471  0.340006273  0.682837958
     0.838914395  0.840043346  0.683880277
     0.075133196  0.919575512  0.694562650
     0.424417004  0.336210916  0.850587728
     0.424410178  0.419537869  0.193518551
     0.763027662  0.021705826  0.308634155
     0.764020422  0.734036477  0.737378083
     0.736779131  0.521658194  0.807809015
     0.735636791  0.233987517  0.236558601
     0.234419413  0.734144370  0.237603280
     0.266188522  0.521749205  0.307284754
     0.233608234  0.021760137  0.807886091
     0.265432571  0.234078772  0.736762873
     0.630540174  0.005503341  0.010573411
     0.892645756  0.039167550  0.608190838
     0.894314209  0.716695080  0.438281436
     0.607544961  0.539027521  0.107623884
     0.605018104  0.216568294  0.937702678
     0.366680877  0.750370301  0.535887767
     0.869275124  0.505565335  0.509750548
     0.868522324  0.250125109  0.534360760
     0.134384586  0.505517647  0.008687484
     0.104637785  0.716630396  0.938115263
     0.104014951  0.039363896  0.107387150
     0.395463716  0.216499278  0.437577753
     0.631121852  0.750091059  0.035172349
     0.365194967  0.005435518  0.509183804
     0.133178773  0.250381199  0.034963338
     0.395872782  0.539266375  0.606789094

  ion indices of the primitive-cell ions
   primitive index   ion index
                 1           1
                 2           2
                 3           3
                 4           4
                 5           5
                 6           6
                 7           7
                 8           8
                 9           9
                10          10
                11          11
                12          12
                13          13
                14          14
                15          15
                16          16
                17          17
                18          18
                19          19
                20          20
                21          21
                22          22
                23          23
                24          24
                25          25
                26          26
                27          27
                28          28
                29          29
                30          30
                31          31
                32          32
                33          33
                34          34
                35          35
                36          36
                37          37
                38          38
                39          39
                40          40
                41          41
                42          42
                43          43
                44          44
                45          45
                46          46
                47          47
                48          48
                49          49
                50          50
                51          51
                52          52
                53          53
                54          54
                55          55
                56          56
                57          57
                58          58
                59          59
                60          60
                61          61
                62          62
                63          63
                64          64
                65          65
                66          66
                67          67
                68          68
                69          69
                70          70
                71          71
                72          72
                73          73
                74          74
                75          75
                76          76
                77          77
                78          78
                79          79
                80          80
                81          81
                82          82
                83          83
                84          84
                85          85
                86          86
                87          87
                88          88
                89          89
                90          90
                91          91
                92          92
                93          93
                94          94
                95          95
                96          96
                97          97
                98          98
                99          99
               100         100
               101         101
               102         102
               103         103
               104         104
               105         105
               106         106
               107         107
               108         108
               109         109
               110         110
               111         111
               112         112
               113         113
               114         114
               115         115
               116         116
               117         117
               118         118
               119         119
               120         120
               121         121
               122         122
               123         123
               124         124
               125         125
               126         126
               127         127
               128         128
               129         129
               130         130
               131         131
               132         132
               133         133
               134         134
               135         135
               136         136
               137         137
               138         138
               139         139
               140         140
               141         141
               142         142
               143         143
               144         144
               145         145
               146         146
               147         147
               148         148
               149         149
               150         150
               151         151
               152         152
               153         153
               154         154
               155         155
               156         156

----------------------------------------------------------------------------------------

 
 

Automatic generation of k-mesh.
 generate k-points for:    3    1    4
Space group operators:
 irot       det(A)        alpha          n_x          n_y          n_z        tau_x        tau_y        tau_z
    1     1.000000     0.000000     1.000000     0.000000     0.000000     0.000000     0.000000     0.000000
 
 Subroutine IBZKPT returns following result:
 ===========================================
 
 Found      7 irreducible k-points:
 
 Following reciprocal coordinates:
            Coordinates               Weight
  0.000000  0.000000  0.000000      1.000000
  0.333333 -0.000000 -0.000000      2.000000
  0.000000  0.000000  0.250000      2.000000
  0.333333  0.000000  0.250000      2.000000
 -0.333333  0.000000  0.250000      2.000000
  0.000000  0.000000  0.500000      1.000000
  0.333333 -0.000000  0.500000      2.000000
 
 Following cartesian coordinates:
            Coordinates               Weight
  0.000000  0.000000  0.000000      1.000000
  0.038318 -0.000003 -0.000002      2.000000
  0.000007  0.003547  0.037258      2.000000
  0.038325  0.003544  0.037256      2.000000
 -0.038311  0.003550  0.037259      2.000000
  0.000014  0.007094  0.074516      1.000000
  0.038332  0.007091  0.074514      2.000000
 


--------------------------------------------------------------------------------------------------------




 Dimension of arrays:
   k-points           NKPTS =      7   k-points in BZ     NKDIM =      7   number of bands    NBANDS=    400
   number of dos      NEDOS =    301   number of ions     NIONS =    156
   non local maximal  LDIM  =      6   non local SUM 2l+1 LMDIM =     18
   total plane-waves  NPLWV = 453600
   max r-space proj   IRMAX =   2267   max aug-charges    IRDMAX=   7272
   dimension x,y,z NGX =    54 NGY =  200 NGZ =   42
   dimension x,y,z NGXF=   108 NGYF=  400 NGZF=   84
   support grid    NGXF=   108 NGYF=  400 NGZF=   84
   ions per type =              80   4  32  24  16
   NGX,Y,Z   is equivalent  to a cutoff of  10.32, 10.11, 10.27 a.u.
   NGXF,Y,Z  is equivalent  to a cutoff of  20.64, 20.22, 20.54 a.u.

 SYSTEM =  flex_MOF                                
 POSCAR =  Zn_H                                    

 Startparameter for this run:
   NWRITE =      2    write-flag & timer
   PREC   = normal    normal or accurate (medium, high low for compatibility)
   ISTART =      0    job   : 0-new  1-cont  2-samecut
   ICHARG =      2    charge: 1-file 2-atom 10-const
   ISPIN  =      1    spin polarized calculation?
   LNONCOLLINEAR =      F non collinear calculations
   LSORBIT =      F    spin-orbit coupling
   INIWAV =      1    electr: 0-lowe 1-rand  2-diag
   LASPH  =      F    aspherical Exc in radial PAW
   METAGGA=      F    non-selfconsistent MetaGGA calc.

 Electronic Relaxation 1
   ENCUT  =  600.0 eV  44.10 Ry    6.64 a.u.  17.37 65.70 13.58*2*pi/ulx,y,z
   ENINI  =  600.0     initial cutoff
   ENAUG  =  644.9 eV  augmentation charge cutoff
   NELM   =     80;   NELMIN=  4; NELMDL=-12     # of ELM steps 
   EDIFF  = 0.1E-05   stopping-criterion for ELM
   LREAL  =      T    real-space projection
   NLSPLINE    = F    spline interpolate recip. space projectors
   LCOMPAT=      F    compatible to vasp.4.4
   GGA_COMPAT  = T    GGA compatible to vasp.4.4-vasp.4.6
   LMAXPAW     = -100 max onsite density
   LMAXMIX     =    2 max onsite mixed and CHGCAR
   VOSKOWN=      0    Vosko Wilk Nusair interpolation
   ROPT   =   -0.00050  -0.00050  -0.00050  -0.00050
   ROPT   =   -0.00050
 Ionic relaxation
   EDIFFG = -.1E-01   stopping-criterion for IOM
   NSW    =   1000    number of steps for IOM
   NBLOCK =      1;   KBLOCK =   1000    inner block; outer block 
   IBRION =      2    ionic relax: 0-MD 1-quasi-New 2-CG
   NFREE  =      1    steps in history (QN), initial steepest desc. (CG)
   ISIF   =      4    stress and relaxation
   IWAVPR =     11    prediction:  0-non 1-charg 2-wave 3-comb
   ISYM   =      0    0-nonsym 1-usesym 2-fastsym
   LCORR  =      T    Harris-Foulkes like correction to forces

   POTIM  = 0.5000    time-step for ionic-motion
   TEIN   =    0.0    initial temperature
   TEBEG  =    0.0;   TEEND  =   0.0 temperature during run
   SMASS  =  -3.00    Nose mass-parameter (am)
   estimated Nose-frequenzy (Omega)   =  0.10E-29 period in steps = 0.13E+47 mass=  -0.173E-26a.u.
   SCALEE = 1.0000    scale energy and forces
   NPACO  =    256;   APACO  = 16.0  distance and # of slots for P.C.
   PSTRESS=    0.0 pullay stress

  Mass of Ions in am
   POMASS =  12.01 65.39  1.00 14.00 16.00
  Ionic Valenz
   ZVAL   =   4.00 12.00  1.00  5.00  6.00
  Atomic Wigner-Seitz radii
   RWIGS  =  -1.00 -1.00 -1.00 -1.00 -1.00
  virtual crystal weights 
   VCA    =   1.00  1.00  1.00  1.00  1.00
   NELECT =     616.0000    total number of electrons
   NUPDOWN=      -1.0000    fix difference up-down

 DOS related values:
   EMIN   =  10.00;   EMAX   =-10.00  energy-range for DOS
   EFERMI =   0.00
   ISMEAR =     0;   SIGMA  =   0.05  broadening in eV -4-tet -1-fermi 0-gaus

 Electronic relaxation 2 (details)
   IALGO  =     48    algorithm
   LDIAG  =      T    sub-space diagonalisation (order eigenvalues)
   LSUBROT=      F    optimize rotation matrix (better conditioning)
   TURBO    =      0    0=normal 1=particle mesh
   IRESTART =      0    0=no restart 2=restart with 2 vectors
   NREBOOT  =      0    no. of reboots
   NMIN     =      0    reboot dimension
   EREF     =   0.00    reference energy to select bands
   IMIX   =      4    mixing-type and parameters
     AMIX     =   0.40;   BMIX     =  1.00
     AMIX_MAG =   1.60;   BMIX_MAG =  1.00
     AMIN     =   0.10
     WC   =   100.;   INIMIX=   1;  MIXPRE=   1;  MAXMIX= -45

 Intra band minimization:
   WEIMIN = 0.0010     energy-eigenvalue tresh-hold
   EBREAK =  0.63E-09  absolut break condition
   DEPER  =   0.30     relativ break condition  

   TIME   =   0.40     timestep for ELM

  volume/ion in A,a.u.               =      12.25        82.69
  Fermi-wavevector in a.u.,A,eV,Ry     =   1.122394  2.121017 17.140190  1.259768
  Thomas-Fermi vector in A             =   2.259054
 
 Write flags
   LWAVE        =      T    write WAVECAR
   LDOWNSAMPLE  =      F    k-point downsampling of WAVECAR
   LCHARG       =      T    write CHGCAR
   LVTOT        =      F    write LOCPOT, total local potential
   LVHAR        =      F    write LOCPOT, Hartree potential only
   LELF         =      F    write electronic localiz. function (ELF)
   LORBIT       =      0    0 simple, 1 ext, 2 COOP (PROOUT), +10 PAW based schemes


 Dipole corrections
   LMONO  =      F    monopole corrections only (constant potential shift)
   LDIPOL =      F    correct potential (dipole corrections)
   IDIPOL =      0    1-x, 2-y, 3-z, 4-all directions 
   EPSILON=  1.0000000 bulk dielectric constant

 Exchange correlation treatment:
   GGA     =    PE    GGA type
   LEXCH   =     8    internal setting for exchange type
   VOSKOWN=      0    Vosko Wilk Nusair interpolation
   LHFCALC =     F    Hartree Fock is set to
   LHFONE  =     F    Hartree Fock one center treatment
   AEXX    =    0.0000 exact exchange contribution

 Linear response parameters
   LEPSILON=     F    determine dielectric tensor
   LRPA    =     F    only Hartree local field effects (RPA)
   LNABLA  =     F    use nabla operator in PAW spheres
   LVEL    =     F    velocity operator in full k-point grid
   LINTERFAST=   F  fast interpolation
   KINTER  =     0    interpolate to denser k-point grid
   CSHIFT  =0.1000    complex shift for real part using Kramers Kronig
   OMEGAMAX=  -1.0    maximum frequency
   DEG_THRESHOLD= 0.2000000E-02 threshold for treating states as degnerate
   RTIME   =   -0.100 relaxation time in fs
  (WPLASMAI=    0.000 imaginary part of plasma frequency in eV, 0.658/RTIME)
   DFIELD  = 0.0000000 0.0000000 0.0000000 field for delta impulse in time
 
 Orbital magnetization related:
   ORBITALMAG=     F  switch on orbital magnetization
   LCHIMAG   =     F  perturbation theory with respect to B field
   DQ        =  0.001000  dq finite difference perturbation B field
   LLRAUG    =     F  two centre corrections for induced B field



--------------------------------------------------------------------------------------------------------


 conjugate gradient relaxation of ions
 charge density and potential will be updated during run
 non-spin polarized calculation
 RMM-DIIS sequential band-by-band
 perform sub-space diagonalisation
    before iterative eigenvector-optimisation
 modified Broyden-mixing scheme, WC =      100.0
 initial mixing is a Kerker type mixing with AMIX =  0.4000 and BMIX =      1.0000
 Hartree-type preconditioning will be used
 using additional bands           92
 real space projection scheme for non local part
 use partial core corrections
 calculate Harris-corrections to forces 
   (improved forces if not selfconsistent)
 use gradient corrections 
 use of overlap-Matrix (Vanderbilt PP)
 Gauss-broadening in eV      SIGMA  =   0.05


--------------------------------------------------------------------------------------------------------


  energy-cutoff  :      600.00
  volume of cell :     1911.48
      direct lattice vectors                 reciprocal lattice vectors
     8.699023839 -0.000657463 -0.001569957     0.114955425 -0.000009304 -0.000004926
     0.002516758 32.747321476 -3.117724614     0.000002843  0.030808428  0.002852567
     0.000239385 -0.626807854  6.769680296     0.000027969  0.014188585  0.149031190

  length of vectors
     8.699024005 32.895399024  6.798636588     0.114955426  0.030940207  0.149705084


 
 k-points in units of 2pi/SCALE and weight: read from INCAR                         
   0.00000000  0.00000000  0.00000000       0.083
   0.03831848 -0.00000310 -0.00000164       0.167
   0.00000699  0.00354715  0.03725780       0.167
   0.03832547  0.00354404  0.03725616       0.167
  -0.03831148  0.00355025  0.03725944       0.167
   0.00001398  0.00709429  0.07451559       0.083
   0.03833246  0.00709119  0.07451395       0.167
 
 k-points in reciprocal lattice and weights: read from INCAR                         
   0.00000000  0.00000000  0.00000000       0.083
   0.33333333 -0.00000000 -0.00000000       0.167
   0.00000000  0.00000000  0.25000000       0.167
   0.33333333  0.00000000  0.25000000       0.167
  -0.33333333  0.00000000  0.25000000       0.167
   0.00000000  0.00000000  0.50000000       0.083
   0.33333333 -0.00000000  0.50000000       0.167
 
 position of ions in fractional coordinates (direct lattice) 
   0.89768259  0.95742389  0.15467797
   0.76357578  0.95182786  0.42728747
   0.89799264  0.79842299  0.89178854
   0.60216482  0.45735803  0.65358007
   0.73556301  0.30385695  0.11784869
   0.23334852  0.80398868  0.11890176
   0.73609038  0.45178687  0.92642559
   0.60172435  0.29837664  0.39083318
   0.26692759  0.45194421  0.42649255
   0.09960516  0.79843561  0.39186419
   0.23287484  0.95197480  0.92734510
   0.26642951  0.30390711  0.61784544
   0.76408056  0.80391050  0.61880831
   0.09921549  0.95739060  0.65408604
   0.40020986  0.29838242  0.89087759
   0.40035947  0.45736082  0.15312203
   0.68899824  0.03214592  0.13927942
   0.82805699  0.05049801  0.46656182
   0.82942386  0.70530180  0.57951251
   0.67191246  0.55041309  0.96600195
   0.67010264  0.20521469  0.07892708
   0.30872460  0.72371239  0.40680219
   0.81081335  0.53216488  0.63863809
   0.80978907  0.22351735  0.40574462
   0.19220598  0.53218148  0.13788512
   0.16978905  0.70532598  0.07942324
   0.16892405  0.05062009  0.96580967
   0.33017177  0.20522478  0.57884731
   0.68987021  0.72351440  0.90641955
   0.30749048  0.03213478  0.63828294
   0.19112892  0.22369482  0.90604004
   0.33091874  0.55057170  0.46535643
   0.68782316  0.07661150  0.12522180
   0.81667339  0.09479988  0.45177481
   0.81798930  0.66096984  0.59382933
   0.68316246  0.59473532  0.95152761
   0.68167744  0.16089725  0.09349095
   0.31080562  0.67922067  0.42032642
   0.81197328  0.57665526  0.62497051
   0.81071083  0.17906003  0.41989514
   0.19026927  0.57667592  0.12434931
   0.18232974  0.66100107  0.09353648
   0.18116976  0.09492436  0.95121473
   0.31754996  0.16091112  0.59314838
   0.68897359  0.67903669  0.92026173
   0.30949125  0.07661131  0.62443705
   0.18905108  0.17921534  0.91984465
   0.31866105  0.59489594  0.45112586
   0.62554433  0.08881225  0.95741449
   0.87670455  0.12487680  0.60319469
   0.87790808  0.63093128  0.44217811
   0.62305551  0.62476805  0.10306329
   0.62179808  0.13081064  0.94197565
   0.37348877  0.66701687  0.58791196
   0.87424878  0.58891462  0.45732601
   0.87314915  0.16686270  0.58763016
   0.12771230  0.58886958  0.95668353
   0.12311005  0.63088293  0.94166432
   0.12182912  0.12506833  0.10285117
   0.37674233  0.13075907  0.44143960
   0.62654390  0.66677357  0.08780412
   0.37206896  0.08875426  0.45666952
   0.12636797  0.16706615  0.08753814
   0.37803351  0.62500503  0.60293278
   0.79918429  0.97913070  0.29913517
   0.79980178  0.77664328  0.74712157
   0.70062518  0.47907643  0.79812175
   0.69984710  0.27658891  0.24614066
   0.19794343  0.77670684  0.24726230
   0.30236948  0.47917450  0.29789065
   0.19736202  0.97919836  0.79873163
   0.30191794  0.27663744  0.74623702
   0.75052332  0.10656623  0.28077036
   0.75189815  0.64913499  0.76467549
   0.74925374  0.60656766  0.78067227
   0.74782179  0.14911544  0.26445664
   0.24869661  0.64923705  0.26442506
   0.25232476  0.60666454  0.28025355
   0.24748303  0.10663626  0.78020255
   0.25114753  0.14919754  0.76411511
   0.06008061  0.87794819  0.02305286
   0.93682656  0.87790355  0.52302688
   0.43947085  0.37788040  0.52205896
   0.56278362  0.37788640  0.02222818
   0.42671660  0.14043465  0.31081438
   0.91885842  0.56511028  0.33799670
   0.91794319  0.19070090  0.70667493
   0.58092938  0.06497451  0.83821348
   0.58168547  0.69056758  0.20696890
   0.57335125  0.61498319  0.23358170
   0.07316717  0.64059924  0.81110786
   0.07191558  0.11537874  0.23348989
   0.92760620  0.64071304  0.31165389
   0.08218351  0.19095386  0.20678679
   0.08361278  0.56500156  0.83725243
   0.41766266  0.69087768  0.70731033
   0.42799020  0.61527730  0.73347557
   0.57204050  0.14054673  0.81135858
   0.92641376  0.11513768  0.73383898
   0.41610894  0.06485548  0.33734762
   0.80666469  0.45639702  0.06050007
   0.19589583  0.29928028  0.48374764
   0.45397684  0.46779880  0.02753676
   0.04580196  0.78792584  0.51712743
   0.30331396  0.95666074  0.06154277
   0.45397242  0.28788984  0.01623035
   0.95158439  0.96795840  0.02953902
   0.69356004  0.79926537  0.48468264
   0.04547518  0.96784002  0.52860077
   0.54836235  0.46787265  0.52829327
   0.80606744  0.29921105  0.98373042
   0.69292509  0.95643322  0.56128670
   0.54783612  0.28790249  0.51614181
   0.19657825  0.45663456  0.56075071
   0.30390542  0.79936607  0.98483933
   0.95190520  0.78794342  0.01709035
   0.92181805  0.91958456  0.19480225
   0.83871105  0.91574293  0.36228931
   0.92188226  0.83626956  0.85158928
   0.57792899  0.41952718  0.69378881
   0.66075208  0.33999365  0.18292751
   0.15821130  0.84007732  0.18386667
   0.66091923  0.41570574  0.86142990
   0.57781699  0.33622134  0.35064453
   0.34170913  0.41580573  0.36146783
   0.07534088  0.83626323  0.35158703
   0.15798101  0.91584329  0.86243443
   0.34151347  0.34000627  0.68283796
   0.83891440  0.84004335  0.68388028
   0.07513320  0.91957551  0.69456265
   0.42441700  0.33621092  0.85058773
   0.42441018  0.41953787  0.19351855
   0.76302766  0.02170583  0.30863415
   0.76402042  0.73403648  0.73737808
   0.73677913  0.52165819  0.80780901
   0.73563679  0.23398752  0.23655860
   0.23441941  0.73414437  0.23760328
   0.26618852  0.52174921  0.30728475
   0.23360823  0.02176014  0.80788609
   0.26543257  0.23407877  0.73676287
   0.63054017  0.00550334  0.01057341
   0.89264576  0.03916755  0.60819084
   0.89431421  0.71669508  0.43828144
   0.60754496  0.53902752  0.10762388
   0.60501810  0.21656829  0.93770268
   0.36668088  0.75037030  0.53588777
   0.86927512  0.50556534  0.50975055
   0.86852232  0.25012511  0.53436076
   0.13438459  0.50551765  0.00868748
   0.10463779  0.71663040  0.93811526
   0.10401495  0.03936390  0.10738715
   0.39546372  0.21649928  0.43757775
   0.63112185  0.75009106  0.03517235
   0.36519497  0.00543552  0.50918380
   0.13317877  0.25038120  0.03496334
   0.39587278  0.53926638  0.60678909
 
 position of ions in cartesian coordinates  (Angst):
   7.81140892 31.25552429 -1.93927294
   6.64486174 30.90148385 -0.07613640
   7.81388233 25.58664392  3.54645051
   5.23955362 14.56718546  2.99766635
   6.39947311  9.87614912 -0.15069911
   2.03195627 26.25379376 -1.70205473
   6.40462658 14.21363501  4.86190239
   5.23525893  9.52566289  1.71461481
   2.32324903 14.53245812  1.47776152
   0.86857090 25.90093845  0.16333654
   2.02840165 30.59320445  3.30946902
   2.31858946  9.56469817  3.23469915
   6.64892641 25.93753927  1.68156327
   0.86564400 30.94192641  1.44291735
   3.48239937  9.21255274  5.10005395
   3.48392429 14.88110048 -0.38996646
   5.99372635  0.96493825  0.84157333
   7.20352628  1.36068565  2.99973545
   7.21709171 22.73295642  1.72287548
   5.84659898 17.41861503  4.82243308
   5.82977421  6.67031862 -0.10654381
   2.68752149 23.44445264  0.49710011
   7.05477690 17.02613800  2.66295922
   7.04503411  7.06473804  2.04862451
   1.67337676 17.34096414 -0.72605889
   1.47879316 23.04764182 -1.66160880
   1.46983292  1.05218431  6.38013799
   2.87282713  6.35751881  3.27825854
   6.00323533 23.12455409  3.87936886
   2.67510065  0.65204497  4.22030129
   1.66341491  6.75736751  5.43588250
   2.88016710 17.73784182  1.43326381
   5.98361283  2.42987927  0.60777813
   7.10460804  2.82072937  2.76152898
   7.11751404 21.27223709  1.95802858
   5.94457108 18.87911464  4.58624423
   5.93035562  5.20990494  0.13020032
   2.70551557 21.97898930  0.72736455
   7.06497585 18.49164478  2.43172352
   7.05294405  5.60000987  2.28302319
   1.65663807 18.80652366 -0.95641039
   1.58777676 21.58726535 -1.42789347
   1.57646668  2.51217063  6.14318715
   2.76292164  4.89740945  3.51324977
   5.99532696 21.65935242  4.11174666
   2.69261404  2.11720955  3.98790037
   1.64523112  5.29213206  5.66801335
   2.77364527 19.19826986  1.19875584
   5.44207776  2.30783701  6.20351582
   7.62693247  3.71071728  3.69272730
   7.63863710 20.38357152  1.02495620
   5.42157179 20.39446961 -1.25112740
   5.40959100  3.69285166  5.96806623
   3.25080717 21.47426246  1.89981472
   7.60670259 18.99814611  1.25850475
   7.59610586  5.09540107  3.45646556
   1.11268337 18.68416086  4.64030794
   1.07275047 20.06940256  4.40765390
   1.06013378  4.03110487  0.30614964
   3.27772523  4.00506393  2.58014268
   5.45201949 21.77960030 -1.48539420
   3.23696940  2.61997555  2.81421116
   1.09971941  5.41601616  0.07154062
   3.29023982 20.08906895  2.13247509
   6.95465905 31.87588206 -1.02886511
   6.95962819 24.96415968  2.63515863
   6.09615194 15.18774018  3.90830074
   6.08874162  8.90280278  0.80286678
   1.72392862 25.27995242 -0.74798204
   2.63159656 15.50476240  0.52221565
   1.71951251 31.56534239  2.35397710
   2.62726620  8.59118941  4.18883268
   6.52915565  3.31327621  1.56730314
   6.54259673 20.77763314  3.15160402
   6.51948960 19.37364193  3.39261451
   6.50575815  4.71687619  1.32421195
   2.16511497 21.09486702 -0.23445967
   2.19657300 19.69080763  0.00541784
   2.15331596  3.00285223  4.94887076
   2.18529672  4.40670118  4.70726392
   0.52485773 28.73596240 -2.58123453
   8.15181123 28.42053638  0.80219252
   3.82404345 12.04705132  2.35535530
   4.89662454 12.36046469 -1.02855164
   3.71244576  4.40375724  1.66560748
   7.99467449 18.29338492  0.52482880
   7.98585880  5.80139062  4.18796935
   5.05388272  1.60196049  5.47095261
   5.06188327 22.48412642 -0.75279946
   4.98919989 19.99226432 -0.33697490
   0.63828937 20.46945231  3.49361404
   0.62594159  3.63194399  1.22081987
   8.07095560 20.78567885  0.11077412
   0.71544642  6.12355767  0.80440988
   0.72897194 17.97743647  3.90628072
   3.63516556 22.18077108  2.63364275
   3.72482104 19.68865377  3.04645804
   4.97674189  4.09358705  5.05355410
   8.05936084  3.30986557  4.60743327
   3.61998558  1.91211749  2.08088075
   7.01835853 14.90732774 -1.01462050
   1.70497151  9.49728207  2.34143582
   3.95033928 15.30159885 -1.27276546
   0.40053918 25.47829103  1.04417968
   2.64095775 31.28930182 -2.56645604
   3.94984530  9.41714946 -0.78839968
   8.28029844 31.67890397 -2.81935198
   6.03542290 25.86954105  0.78816832
   0.39815199 31.36280723  0.56092819
   4.77152114 14.99007728  2.11681756
   7.01298843  9.18122037  5.72541733
   6.03031336 30.96835167  0.81674825
   4.76648761  9.10415356  2.59565429
   1.71132240 14.60194648  2.37213361
   2.64592805 25.55959291  4.17436699
   8.28263318 25.79169834 -2.34238887
   8.02127820 29.99122144 -1.54970967
   7.29835881 29.76049090 -0.40376820
   8.02178430 26.85119908  3.15628167
   5.02863999 13.30313913  3.38785088
   5.74879756 11.01878659  0.17731681
   1.37844218 27.39492897 -1.37465954
   5.75060461 13.07286401  4.53451137
   5.02737391 10.79018165  1.32459867
   2.97366890 13.38972849  1.15011741
   0.65758092 27.16495365 -0.22722492
   1.37679197 29.45073008  2.98281018
   2.97185300 10.70606200  3.56201258
   7.30001422 27.07995641  2.00930996
   0.65606608 29.67822819  1.83486592
   3.69306341 10.47657283  4.70932762
   3.69305646 13.61716348  0.00138888
   6.63772433  0.51685167  2.02048385
   6.64825577 23.57503179  2.70209081
   6.41076549 16.57608315  3.84106547
   6.39996750  7.51370399  0.87076254
   2.04112461 23.89217597 -0.68072976
   2.31696697 16.89310544  0.45313130
   2.03241176  0.20604325  5.40092169
   2.30976975  7.20346954  4.25743924
   5.48510039  0.17317764  0.05343079
   7.76539087  0.90082667  3.99374248
   7.78156929 23.19453796  0.73116327
   5.28643046 17.58384859 -0.95291390
   5.26383644  6.50387438  5.67179719
   3.19178248 24.23647775  1.28776522
   7.56323944 16.23582339  1.87327003
   7.55605383  7.85541481  2.83626675
   1.17028907 16.54881517 -1.51746430
   0.91227475 22.87963915  4.11631991
   0.90495331  1.22168265  0.60408759
   3.44079792  6.81523428  2.28665550
   5.49204025 24.54101179 -2.10146263
   3.17697529 -0.14140184  3.42949178
   1.15916384  8.17731075 -0.54413809
   3.44520922 17.27892891  2.42586262
 


--------------------------------------------------------------------------------------------------------


 k-point  1 :   0.0000 0.0000 0.0000  plane waves:   63839
 k-point  2 :   0.3333-0.0000-0.0000  plane waves:   63836
 k-point  3 :   0.0000 0.0000 0.2500  plane waves:   63789
 k-point  4 :   0.3333 0.0000 0.2500  plane waves:   63796
 k-point  5 :  -0.3333 0.0000 0.2500  plane waves:   63793
 k-point  6 :   0.0000 0.0000 0.5000  plane waves:   63760
 k-point  7 :   0.3333-0.0000 0.5000  plane waves:   63751

 maximum and minimum number of plane-waves per node :     15980    15905

 maximum number of plane-waves:     63839
 maximum index in each direction: 
   IXMAX=   17   IYMAX=   65   IZMAX=   13
   IXMIN=  -17   IYMIN=  -65   IZMIN=  -14


 real space projection operators:
  total allocation   :      12065.34 KBytes
  max/ min on nodes  :       3094.67       2938.02


 parallel 3D FFT for wavefunctions:
    minimum data exchange during FFTs selected (reduces bandwidth)
 parallel 3D FFT for charge:
    minimum data exchange during FFTs selected (reduces bandwidth)


 total amount of memory used by VASP MPI-rank0    98382. kBytes
=======================================================================

   base      :      30000. kBytes
   nonlr-proj:       6144. kBytes
   fftplans  :       5844. kBytes
   grid      :      10227. kBytes
   one-center:        606. kBytes
   wavefun   :      45561. kBytes
 
     INWAV:  cpu time    0.0001: real time    0.0001
 Broyden mixing: mesh for mixing (old mesh)
   NGX = 35   NGY =131   NGZ = 27
  (NGX  =108   NGY  =400   NGZ  = 84)
  gives a total of 123795 points

 initial charge density was supplied:
 charge density of overlapping atoms calculated
 number of electron     616.0000000 magnetization 
 keeping initial charge density in first step


--------------------------------------------------------------------------------------------------------


 Maximum index for non-local projection operator          633
 Maximum index for augmentation-charges          405 (set IRDMAX)


--------------------------------------------------------------------------------------------------------


 First call to EWALD:  gamma=   0.143
 Maximum number of real-space cells 4x 1x 5
 Maximum number of reciprocal cells 2x 6x 2

    FEWALD:  cpu time    0.0156: real time    0.0160


--------------------------------------- Iteration      1(   1)  ---------------------------------------


    POTLOK:  cpu time    0.1046: real time    0.1382
    SETDIJ:  cpu time    0.0310: real time    0.0318
    EDDIAG:  cpu time    3.7676: real time    3.8278
  RMM-DIIS:  cpu time    4.9089: real time    4.9148
    ORTHCH:  cpu time    0.8300: real time    0.8312
       DOS:  cpu time    0.0048: real time    0.0050
    --------------------------------------------
      LOOP:  cpu time    9.6470: real time    9.7490

 eigenvalue-minimisations  :  2800
 total energy-change (2. order) : 0.6112166E+04  (-0.2692585E+05)
 number of electron     616.0000000 magnetization 
 augmentation part      616.0000000 magnetization 

 Free energy of the ion-electron system (eV)
  ---------------------------------------------------
  alpha Z        PSCENC =      1010.68667010
  Ewald energy   TEWEN  =     -8354.12414555
  -Hartree energ DENC   =    -21245.55600827
  -exchange      EXHF   =         0.00000000
  -V(xc)+E(xc)   XCENC  =      2276.32264922
  PAW double counting   =     25034.14638475   -25847.60581054
  entropy T*S    EENTRO =        -0.04440172
  eigenvalues    EBANDS =       804.66060031
  atomic energy  EATOM  =     32433.67991533
  Solvation  Ediel_sol  =         0.00000000
  ---------------------------------------------------
  free energy    TOTEN  =      6112.16585363 eV

  energy without entropy =     6112.21025535  energy(sigma->0) =     6112.18805449


--------------------------------------------------------------------------------------------------------




--------------------------------------- Iteration      1(   2)  ---------------------------------------


    EDDIAG:  cpu time    3.6545: real time    3.6583
  RMM-DIIS:  cpu time    4.8589: real time    4.8636
    ORTHCH:  cpu time    0.8237: real time    0.8246
       DOS:  cpu time    0.0032: real time    0.0032
    --------------------------------------------
      LOOP:  cpu time    9.3401: real time    9.3497

 eigenvalue-minimisations  :  2800
 total energy-change (2. order) :-0.4007243E+04  (-0.6673444E+04)
 number of electron     616.0000000 magnetization 
 augmentation part      616.0000000 magnetization 

 Free energy of the ion-electron system (eV)
  ---------------------------------------------------
  alpha Z        PSCENC =      1010.68667010
  Ewald energy   TEWEN  =     -8354.12414555
  -Hartree energ DENC   =    -21245.55600827
  -exchange      EXHF   =         0.00000000
  -V(xc)+E(xc)   XCENC  =      2276.32264922
  PAW double counting   =     25034.14638475   -25847.60581054
  entropy T*S    EENTRO =        -0.02376401
  eigenvalues    EBANDS =     -3202.60327834
  atomic energy  EATOM  =     32433.67991533
  Solvation  Ediel_sol  =         0.00000000
  ---------------------------------------------------
  free energy    TOTEN  =      2104.92261270 eV

  energy without entropy =     2104.94637671  energy(sigma->0) =     2104.93449470


--------------------------------------------------------------------------------------------------------




--------------------------------------- Iteration      1(   3)  ---------------------------------------


    EDDIAG:  cpu time    3.6692: real time    3.6736
  RMM-DIIS:  cpu time    4.8548: real time    4.8607
    ORTHCH:  cpu time    0.8240: real time    0.8241
       DOS:  cpu time    0.0035: real time    0.0035
    --------------------------------------------
      LOOP:  cpu time    9.3515: real time    9.3619

 eigenvalue-minimisations  :  2800
 total energy-change (2. order) :-0.2049620E+04  (-0.2392067E+04)
 number of electron     616.0000000 magnetization 
 augmentation part      616.0000000 magnetization 

 Free energy of the ion-electron system (eV)
  ---------------------------------------------------
  alpha Z        PSCENC =      1010.68667010
  Ewald energy   TEWEN  =     -8354.12414555
  -Hartree energ DENC   =    -21245.55600827
  -exchange      EXHF   =         0.00000000
  -V(xc)+E(xc)   XCENC  =      2276.32264922
  PAW double counting   =     25034.14638475   -25847.60581054
  entropy T*S    EENTRO =        -0.03923175
  eigenvalues    EBANDS =     -5252.20782184
  atomic energy  EATOM  =     32433.67991533
  Solvation  Ediel_sol  =         0.00000000
  ---------------------------------------------------
  free energy    TOTEN  =        55.30260144 eV

  energy without entropy =       55.34183320  energy(sigma->0) =       55.32221732


--------------------------------------------------------------------------------------------------------




--------------------------------------- Iteration      1(   4)  ---------------------------------------


    EDDIAG:  cpu time    3.6440: real time    3.6499
  RMM-DIIS:  cpu time    4.8678: real time    4.8729
    ORTHCH:  cpu time    0.8253: real time    0.8261
       DOS:  cpu time    0.0041: real time    0.0041
    --------------------------------------------
      LOOP:  cpu time    9.3412: real time    9.3531

 eigenvalue-minimisations  :  2800
 total energy-change (2. order) :-0.8566763E+03  (-0.8147277E+03)
 number of electron     616.0000000 magnetization 
 augmentation part      616.0000000 magnetization 

 Free energy of the ion-electron system (eV)
  ---------------------------------------------------
  alpha Z        PSCENC =      1010.68667010
  Ewald energy   TEWEN  =     -8354.12414555
  -Hartree energ DENC   =    -21245.55600827
  -exchange      EXHF   =         0.00000000
  -V(xc)+E(xc)   XCENC  =      2276.32264922
  PAW double counting   =     25034.14638475   -25847.60581054
  entropy T*S    EENTRO =        -0.01967092
  eigenvalues    EBANDS =     -6108.90371764
  atomic energy  EATOM  =     32433.67991533
  Solvation  Ediel_sol  =         0.00000000
  ---------------------------------------------------
  free energy    TOTEN  =      -801.37373352 eV

  energy without entropy =     -801.35406260  energy(sigma->0) =     -801.36389806


--------------------------------------------------------------------------------------------------------




--------------------------------------- Iteration      1(   5)  ---------------------------------------


    EDDIAG:  cpu time    3.6799: real time    3.6836
  RMM-DIIS:  cpu time    4.8568: real time    4.8619
    ORTHCH:  cpu time    0.8339: real time    0.8348
       DOS:  cpu time    0.0033: real time    0.0033
    --------------------------------------------
      LOOP:  cpu time    9.3738: real time    9.3836

 eigenvalue-minimisations  :  2800
 total energy-change (2. order) :-0.2856982E+03  (-0.2543715E+03)
 number of electron     616.0000000 magnetization 
 augmentation part      616.0000000 magnetization 

 Free energy of the ion-electron system (eV)
  ---------------------------------------------------
  alpha Z        PSCENC =      1010.68667010
  Ewald energy   TEWEN  =     -8354.12414555
  -Hartree energ DENC   =    -21245.55600827
  -exchange      EXHF   =         0.00000000
  -V(xc)+E(xc)   XCENC  =      2276.32264922
  PAW double counting   =     25034.14638475   -25847.60581054
  entropy T*S    EENTRO =        -0.00860210
  eigenvalues    EBANDS =     -6394.61297586
  atomic energy  EATOM  =     32433.67991533
  Solvation  Ediel_sol  =         0.00000000
  ---------------------------------------------------
  free energy    TOTEN  =     -1087.07192291 eV

  energy without entropy =    -1087.06332081  energy(sigma->0) =    -1087.06762186


--------------------------------------------------------------------------------------------------------




--------------------------------------- Iteration      1(   6)  ---------------------------------------


    EDDIAG:  cpu time    3.6399: real time    3.6441
  RMM-DIIS:  cpu time    4.8536: real time    4.8598
    ORTHCH:  cpu time    0.8259: real time    0.8269
       DOS:  cpu time    0.0021: real time    0.0020
    --------------------------------------------
      LOOP:  cpu time    9.3214: real time    9.3329

 eigenvalue-minimisations  :  2800
 total energy-change (2. order) :-0.9410583E+02  (-0.8289163E+02)
 number of electron     616.0000000 magnetization 
 augmentation part      616.0000000 magnetization 

 Free energy of the ion-electron system (eV)
  ---------------------------------------------------
  alpha Z        PSCENC =      1010.68667010
  Ewald energy   TEWEN  =     -8354.12414555
  -Hartree energ DENC   =    -21245.55600827
  -exchange      EXHF   =         0.00000000
  -V(xc)+E(xc)   XCENC  =      2276.32264922
  PAW double counting   =     25034.14638475   -25847.60581054
  entropy T*S    EENTRO =        -0.00000000
  eigenvalues    EBANDS =     -6488.72740745
  atomic energy  EATOM  =     32433.67991533
  Solvation  Ediel_sol  =         0.00000000
  ---------------------------------------------------
  free energy    TOTEN  =     -1181.17775241 eV

  energy without entropy =    -1181.17775241  energy(sigma->0) =    -1181.17775241


--------------------------------------------------------------------------------------------------------




--------------------------------------- Iteration      1(   7)  ---------------------------------------


    EDDIAG:  cpu time    3.6686: real time    3.6728
  RMM-DIIS:  cpu time    4.8532: real time    4.8583
    ORTHCH:  cpu time    0.8285: real time    0.8294
       DOS:  cpu time    0.0015: real time    0.0015
    --------------------------------------------
      LOOP:  cpu time    9.3517: real time    9.3619

 eigenvalue-minimisations  :  2800
 total energy-change (2. order) :-0.3316078E+02  (-0.2981532E+02)
 number of electron     616.0000000 magnetization 
 augmentation part      616.0000000 magnetization 

 Free energy of the ion-electron system (eV)
  ---------------------------------------------------
  alpha Z        PSCENC =      1010.68667010
  Ewald energy   TEWEN  =     -8354.12414555
  -Hartree energ DENC   =    -21245.55600827
  -exchange      EXHF   =         0.00000000
  -V(xc)+E(xc)   XCENC  =      2276.32264922
  PAW double counting   =     25034.14638475   -25847.60581054
  entropy T*S    EENTRO =        -0.00000000
  eigenvalues    EBANDS =     -6521.88818493
  atomic energy  EATOM  =     32433.67991533
  Solvation  Ediel_sol  =         0.00000000
  ---------------------------------------------------
  free energy    TOTEN  =     -1214.33852989 eV

  energy without entropy =    -1214.33852989  energy(sigma->0) =    -1214.33852989


--------------------------------------------------------------------------------------------------------




--------------------------------------- Iteration      1(   8)  ---------------------------------------


    EDDIAG:  cpu time    3.6451: real time    3.6495
  RMM-DIIS:  cpu time    4.8564: real time    4.8609
    ORTHCH:  cpu time    0.8250: real time    0.8259
       DOS:  cpu time    0.0018: real time    0.0017
    --------------------------------------------
      LOOP:  cpu time    9.3282: real time    9.3381

 eigenvalue-minimisations  :  2800
 total energy-change (2. order) :-0.1222198E+02  (-0.1090455E+02)
 number of electron     616.0000000 magnetization 
 augmentation part      616.0000000 magnetization 

 Free energy of the ion-electron system (eV)
  ---------------------------------------------------
  alpha Z        PSCENC =      1010.68667010
  Ewald energy   TEWEN  =     -8354.12414555
  -Hartree energ DENC   =    -21245.55600827
  -exchange      EXHF   =         0.00000000
  -V(xc)+E(xc)   XCENC  =      2276.32264922
  PAW double counting   =     25034.14638475   -25847.60581054
  entropy T*S    EENTRO =        -0.00000000
  eigenvalues    EBANDS =     -6534.11016327
  atomic energy  EATOM  =     32433.67991533
  Solvation  Ediel_sol  =         0.00000000
  ---------------------------------------------------
  free energy    TOTEN  =     -1226.56050823 eV

[...]
   -.497E+02 -.379E+02 -.727E+02   0.355E+02 0.533E+02 0.846E+02   0.143E+02 -.154E+02 -.119E+02   0.440E-03 0.107E-03 -.196E-03
   0.267E+03 0.106E+03 -.383E+02   -.272E+03 -.127E+03 0.500E+02   0.487E+01 0.209E+02 -.117E+02   -.131E-03 -.380E-04 -.403E-03
   -.493E+02 -.373E+02 -.726E+02   0.350E+02 0.527E+02 0.845E+02   0.143E+02 -.154E+02 -.119E+02   0.448E-03 0.860E-04 -.200E-03
   -.267E+03 0.107E+03 -.382E+02   0.272E+03 -.128E+03 0.499E+02   -.488E+01 0.209E+02 -.117E+02   0.128E-03 -.472E-04 -.403E-03
   0.267E+03 -.107E+03 0.380E+02   -.272E+03 0.128E+03 -.496E+02   0.486E+01 -.209E+02 0.117E+02   -.130E-03 0.466E-04 0.404E-03
   0.268E+03 -.107E+03 0.379E+02   -.273E+03 0.128E+03 -.495E+02   0.491E+01 -.209E+02 0.117E+02   -.125E-03 0.423E-04 0.409E-03
   -.494E+02 0.380E+02 0.724E+02   0.351E+02 -.534E+02 -.842E+02   0.143E+02 0.154E+02 0.119E+02   0.432E-03 -.103E-03 0.196E-03
   0.491E+02 -.379E+02 -.726E+02   -.348E+02 0.532E+02 0.844E+02   -.144E+02 -.154E+02 -.119E+02   -.443E-03 0.106E-03 -.199E-03
   0.499E+02 0.376E+02 0.726E+02   -.357E+02 -.530E+02 -.845E+02   -.143E+02 0.154E+02 0.119E+02   -.441E-03 -.101E-03 0.205E-03
   0.858E+02 0.103E+03 -.156E+02   -.889E+02 -.103E+03 0.171E+02   0.308E+01 0.930E-01 -.151E+01   0.317E-03 -.118E-02 -.106E-03
   0.858E+02 -.102E+03 0.156E+02   -.888E+02 0.102E+03 -.171E+02   0.306E+01 -.924E-01 0.151E+01   0.316E-03 0.118E-02 0.105E-03
   -.857E+02 0.103E+03 -.152E+02   0.887E+02 -.103E+03 0.167E+02   -.306E+01 0.101E+00 -.149E+01   -.313E-03 -.118E-02 -.105E-03
   -.861E+02 -.103E+03 0.159E+02   0.892E+02 0.103E+03 -.175E+02   -.308E+01 -.888E-01 0.153E+01   -.321E-03 0.119E-02 0.106E-03
   -.856E+02 -.103E+03 0.154E+02   0.886E+02 0.103E+03 -.169E+02   -.304E+01 -.103E+00 0.149E+01   -.323E-03 0.119E-02 0.102E-03
   0.856E+02 0.102E+03 -.154E+02   -.886E+02 -.103E+03 0.169E+02   0.306E+01 0.103E+00 -.149E+01   0.316E-03 -.119E-02 -.104E-03
   -.857E+02 0.103E+03 -.155E+02   0.888E+02 -.103E+03 0.170E+02   -.307E+01 0.994E-01 -.150E+01   -.313E-03 -.117E-02 -.103E-03
   0.858E+02 -.103E+03 0.156E+02   -.889E+02 0.103E+03 -.171E+02   0.305E+01 -.106E+00 0.150E+01   0.316E-03 0.118E-02 0.105E-03
   0.177E+03 0.315E+03 0.206E+03   -.200E+03 -.351E+03 -.241E+03   0.226E+02 0.357E+02 0.351E+02   0.271E-03 -.147E-02 0.363E-04
   -.580E+02 0.143E+03 -.203E+03   0.823E+02 -.164E+03 0.246E+03   -.243E+02 0.204E+02 -.435E+02   0.134E-03 -.124E-02 -.301E-03
   -.586E+02 -.143E+03 0.202E+03   0.830E+02 0.163E+03 -.246E+03   -.245E+02 -.205E+02 0.434E+02   0.131E-03 0.124E-02 0.302E-03
   0.577E+02 0.143E+03 -.203E+03   -.820E+02 -.164E+03 0.246E+03   0.242E+02 0.205E+02 -.435E+02   -.128E-03 -.125E-02 -.304E-03
   0.587E+02 -.143E+03 0.202E+03   -.832E+02 0.164E+03 -.245E+03   0.245E+02 -.204E+02 0.434E+02   -.134E-03 0.125E-02 0.299E-03
   -.176E+03 -.315E+03 -.206E+03   0.199E+03 0.351E+03 0.241E+03   -.224E+02 -.357E+02 -.352E+02   -.276E-03 0.148E-02 -.303E-04
   -.177E+03 0.315E+03 0.206E+03   0.200E+03 -.351E+03 -.241E+03   -.226E+02 0.356E+02 0.352E+02   -.270E-03 -.148E-02 0.400E-04
   -.178E+03 -.315E+03 -.206E+03   0.201E+03 0.351E+03 0.241E+03   -.227E+02 -.356E+02 -.351E+02   -.268E-03 0.148E-02 -.341E-04
   0.177E+03 0.315E+03 0.206E+03   -.199E+03 -.351E+03 -.241E+03   0.224E+02 0.357E+02 0.353E+02   0.273E-03 -.147E-02 0.384E-04
   0.588E+02 -.143E+03 0.202E+03   -.833E+02 0.163E+03 -.246E+03   0.246E+02 -.204E+02 0.434E+02   -.130E-03 0.125E-02 0.304E-03
   0.593E+02 0.143E+03 -.203E+03   -.837E+02 -.163E+03 0.246E+03   0.245E+02 0.203E+02 -.435E+02   -.112E-03 -.124E-02 -.321E-03
   -.589E+02 -.143E+03 0.202E+03   0.835E+02 0.163E+03 -.245E+03   -.246E+02 -.203E+02 0.434E+02   0.120E-03 0.124E-02 0.303E-03
   0.177E+03 -.315E+03 -.206E+03   -.200E+03 0.350E+03 0.241E+03   0.227E+02 -.356E+02 -.351E+02   0.282E-03 0.147E-02 -.570E-04
   -.176E+03 0.315E+03 0.206E+03   0.199E+03 -.351E+03 -.241E+03   -.223E+02 0.357E+02 0.352E+02   -.284E-03 -.147E-02 0.457E-04
   0.177E+03 -.316E+03 -.206E+03   -.199E+03 0.352E+03 0.241E+03   0.224E+02 -.357E+02 -.352E+02   0.273E-03 0.148E-02 -.328E-04
   -.591E+02 0.143E+03 -.203E+03   0.836E+02 -.163E+03 0.246E+03   -.245E+02 0.204E+02 -.435E+02   0.131E-03 -.125E-02 -.301E-03
 -----------------------------------------------------------------------------------------------
   0.112E-02 -.462E-01 0.225E+00   -.995E-13 -.199E-12 0.568E-13   0.279E-02 0.614E-01 -.259E+00   0.522E-04 0.263E-04 0.319E-04
 
 
 POSITION                                       TOTAL-FORCE (eV/Angst)
 -----------------------------------------------------------------------------------
      7.81141     31.25552     -1.93927        -0.002857     -0.001378     -0.001824
      6.64486     30.90148     -0.07614        -0.003112      0.001771      0.006620
      7.81388     25.58664      3.54645        -0.002608      0.003559     -0.000847
      5.23955     14.56719      2.99767         0.003497      0.001282     -0.000098
      6.39947      9.87615     -0.15070        -0.001397      0.001050     -0.002181
      2.03196     26.25379     -1.70205        -0.000900     -0.000189      0.001388
      6.40463     14.21364      4.86190        -0.001374      0.002053     -0.000634
      5.23526      9.52566      1.71461         0.001173      0.002743      0.002098
      2.32325     14.53246      1.47776        -0.000132      0.001691      0.000896
      0.86857     25.90094      0.16334         0.003642      0.002095     -0.000608
      2.02840     30.59320      3.30947        -0.003311     -0.000204     -0.003121
      2.31859      9.56470      3.23470         0.003816      0.002391      0.003431
      6.64893     25.93754      1.68156         0.001033     -0.001286      0.000806
      0.86564     30.94193      1.44292         0.004376     -0.003238      0.001524
      3.48240      9.21255      5.10005        -0.002206      0.003350      0.000298
      3.48392     14.88110     -0.38997        -0.002477     -0.001554     -0.001629
      5.99373      0.96494      0.84157        -0.001177      0.000728      0.000819
      7.20353      1.36069      2.99974         0.002972      0.002110     -0.001862
      7.21709     22.73296      1.72288         0.001898     -0.000821      0.001072
      5.84660     17.41862      4.82243        -0.004486     -0.000238      0.000563
      5.82977      6.67032     -0.10654        -0.001306      0.000323      0.000481
      2.68752     23.44445      0.49710         0.001063     -0.001244     -0.000892
      7.05478     17.02614      2.66296         0.000451     -0.001094      0.000972
      7.04503      7.06474      2.04862        -0.000258     -0.001282     -0.002202
      1.67338     17.34096     -0.72606        -0.001805     -0.002045     -0.001121
      1.47879     23.04764     -1.66161        -0.000476      0.000475      0.004335
      1.46983      1.05218      6.38014        -0.002731      0.003230     -0.002029
      2.87283      6.35752      3.27826         0.002547      0.002324     -0.000854
      6.00324     23.12455      3.87937         0.000068      0.000625      0.001329
      2.67510      0.65204      4.22030         0.000443     -0.001693      0.001346
      1.66341      6.75737      5.43588        -0.000078     -0.001621     -0.002450
      2.88017     17.73784      1.43326         0.001057      0.001508     -0.001697
      5.98361      2.42988      0.60778         0.001760      0.001142     -0.001575
      7.10461      2.82073      2.76153        -0.001159      0.003807      0.000517
      7.11751     21.27224      1.95803        -0.000867     -0.000715      0.000594
      5.94457     18.87911      4.58624        -0.000150      0.003298     -0.000851
      5.93036      5.20990      0.13020         0.000619     -0.006861     -0.001567
      2.70552     21.97899      0.72736        -0.000881     -0.003052      0.001481
      7.06498     18.49164      2.43172         0.000393      0.000043     -0.002912
      7.05294      5.60001      2.28302         0.001140     -0.003860      0.003055
      1.65664     18.80652     -0.95641        -0.001796      0.001007     -0.004184
      1.58778     21.58727     -1.42789        -0.000135     -0.003732      0.000032
      1.57647      2.51217      6.14319         0.000569      0.002630     -0.000322
      2.76292      4.89741      3.51325        -0.000819     -0.001399      0.001780
      5.99533     21.65935      4.11175         0.001749     -0.001626     -0.000343
      2.69261      2.11721      3.98790         0.001931      0.001696     -0.002540
      1.64523      5.29213      5.66801        -0.000853     -0.000099      0.002333
      2.77365     19.19827      1.19876         0.001022      0.003695      0.003051
      5.44208      2.30784      6.20352        -0.003222      0.000416     -0.003681
      7.62693      3.71072      3.69273        -0.000006     -0.003211      0.000264
      7.63864     20.38357      1.02496        -0.000218     -0.000645      0.000524
      5.42157     20.39447     -1.25113        -0.000309     -0.002028      0.000952
      5.40959      3.69285      5.96807         0.000333      0.005117      0.002616
      3.25081     21.47426      1.89981         0.000227      0.001031      0.001091
      7.60670     18.99815      1.25850         0.001920      0.001582     -0.002592
      7.59611      5.09540      3.45647        -0.000706      0.001355      0.001112
      1.11268     18.68416      4.64031        -0.000995     -0.000456     -0.004390
      1.07275     20.06940      4.40765         0.000644      0.002084      0.002186
      1.06013      4.03110      0.30615         0.001187     -0.002680     -0.000734
      3.27773      4.00506      2.58014        -0.000103     -0.000850     -0.000272
      5.45202     21.77960     -1.48539        -0.000046     -0.001381      0.001686
      3.23697      2.61998      2.81421        -0.000158      0.001010     -0.001916
      1.09972      5.41602      0.07154        -0.001080     -0.001648      0.001460
      3.29024     20.08907      2.13248        -0.000088     -0.005205      0.000853
      6.95466     31.87588     -1.02887        -0.002072      0.003213      0.003126
      6.95963     24.96416      2.63516        -0.003679     -0.001175     -0.006502
      6.09615     15.18774      3.90830         0.001496     -0.002449      0.004569
      6.08874      8.90280      0.80287         0.002656     -0.002208     -0.004682
      1.72393     25.27995     -0.74798         0.002289      0.001555     -0.005024
      2.63160     15.50476      0.52222        -0.005097      0.000721      0.006108
      1.71951     31.56534      2.35398         0.002640     -0.002741      0.002440
      2.62727      8.59119      4.18883        -0.004976     -0.003261     -0.005842
      6.52916      3.31328      1.56730         0.000229      0.003883     -0.001324
      6.54260     20.77763      3.15160        -0.001460     -0.008215      0.002640
      6.51949     19.37364      3.39261         0.001580      0.003250     -0.001529
      6.50576      4.71688      1.32421         0.002429     -0.004926      0.002156
      2.16511     21.09487     -0.23446         0.000580     -0.003775      0.001821
      2.19657     19.69081      0.00542        -0.001187      0.003843     -0.001578
      2.15332      3.00285      4.94887         0.001638      0.006371     -0.000695
      2.18530      4.40670      4.70726        -0.001201     -0.008495      0.001212
      0.52486     28.73596     -2.58123        -0.000645     -0.001261     -0.001653
      8.15181     28.42054      0.80219         0.003405     -0.001390     -0.001494
      3.82404     12.04705      2.35536         0.004319      0.003034      0.001084
      4.89662     12.36046     -1.02855        -0.001455     -0.003635     -0.000328
      3.71245      4.40376      1.66561         0.001335      0.002315     -0.001080
      7.99467     18.29338      0.52483        -0.000615      0.001684     -0.001192
      7.98586      5.80139      4.18797        -0.000843     -0.002198      0.002040
      5.05388      1.60196      5.47095         0.001380      0.002368     -0.000317
      5.06188     22.48413     -0.75280         0.000422     -0.000074      0.003226
      4.98920     19.99226     -0.33697        -0.001362     -0.000597     -0.000101
      0.63829     20.46945      3.49361        -0.002019      0.002217     -0.002100
      0.62594      3.63194      1.22082        -0.001464     -0.001144      0.000499
      8.07096     20.78568      0.11077         0.001788      0.001045     -0.001640
      0.71545      6.12356      0.80441         0.000078     -0.000643      0.004087
      0.72897     17.97744      3.90628         0.000103      0.001732     -0.002690
      3.63517     22.18077      2.63364        -0.000101     -0.001371      0.004115
      3.72482     19.68865      3.04646         0.000044     -0.001187     -0.000462
      4.97674      4.09359      5.05355        -0.001863      0.000645     -0.002447
      8.05936      3.30987      4.60743         0.001734     -0.000952     -0.000519
      3.61999      1.91212      2.08088        -0.000312      0.002944     -0.002119
      7.01836     14.90733     -1.01462        -0.004443     -0.001908      0.002742
      1.70497      9.49728      2.34144         0.002660      0.001465     -0.004817
      3.95034     15.30160     -1.27277        -0.001439     -0.002652      0.000115
      0.40054     25.47829      1.04418         0.002066      0.002333      0.001491
      2.64096     31.28930     -2.56646        -0.003710     -0.002629      0.004218
      3.94985      9.41715     -0.78840        -0.002015      0.001660     -0.000064
      8.28030     31.67890     -2.81935        -0.000930     -0.001749     -0.001426
      6.03542     25.86954      0.78817         0.004282      0.001159     -0.002235
      0.39815     31.36281      0.56093         0.001949     -0.002818     -0.001629
      4.77152     14.99008      2.11682         0.002187     -0.001857      0.000750
      7.01299      9.18122      5.72542        -0.004820      0.001444     -0.001602
      6.03031     30.96835      0.81675         0.005620     -0.002900      0.000235
      4.76649      9.10415      2.59565         0.002406      0.000281      0.000080
      1.71132     14.60195      2.37213         0.004448     -0.002508      0.003417
      2.64593     25.55959      4.17437        -0.004467      0.002852     -0.003980
      8.28263     25.79170     -2.34239        -0.002600      0.001569     -0.000431
      8.02128     29.99122     -1.54971        -0.003073     -0.004922      0.000666
      7.29836     29.76049     -0.40377         0.003643     -0.002748     -0.000148
      8.02178     26.85120      3.15628        -0.002646      0.001470     -0.001231
      5.02864     13.30314      3.38785         0.002487     -0.002673      0.001044
      5.74880     11.01879      0.17732        -0.002091      0.002364     -0.000655
      1.37844     27.39493     -1.37466        -0.002711      0.001875     -0.000678
      5.75060     13.07286      4.53451        -0.001702     -0.002181      0.000150
      5.02737     10.79018      1.32460         0.003217      0.003353     -0.002192
      2.97367     13.38973      1.15012         0.001555     -0.000571      0.001347
      0.65758     27.16495     -0.22722         0.000957      0.001724     -0.002117
      1.37679     29.45073      2.98281        -0.002348     -0.000279      0.001790
      2.97185     10.70606      3.56201         0.002376      0.002648     -0.001113
      7.30001     27.07996      2.00931         0.000901      0.000941     -0.001719
      0.65607     29.67823      1.83487         0.004065      0.000968      0.000241
      3.69306     10.47657      4.70933        -0.003699      0.001235     -0.001318
      3.69306     13.61716      0.00139        -0.001855     -0.002859      0.001959
      6.63772      0.51685      2.02048        -0.001437      0.001026      0.001074
      6.64826     23.57503      2.70209        -0.002952     -0.000059     -0.000696
      6.41077     16.57608      3.84107         0.001244      0.002895     -0.000308
      6.39997      7.51370      0.87076         0.003832     -0.001019     -0.001276
      2.04112     23.89218     -0.68073         0.002675     -0.000694     -0.000815
      2.31697     16.89311      0.45313        -0.001393      0.000256      0.001091
      2.03241      0.20604      5.40092         0.003047      0.001194     -0.000910
      2.30977      7.20347      4.25744        -0.002873     -0.001074      0.000705
      5.48510      0.17318      0.05343         0.000374      0.002900     -0.001946
      7.76539      0.90083      3.99374         0.001393     -0.000585     -0.002000
      7.78157     23.19454      0.73116         0.001477      0.001484      0.003854
      5.28643     17.58385     -0.95291        -0.000928      0.003760     -0.004052
      5.26384      6.50387      5.67180        -0.001478     -0.000878      0.002412
      3.19178     24.23648      1.28777        -0.001995     -0.001816      0.002640
      7.56324     16.23582      1.87327        -0.000781      0.002094     -0.000269
      7.55605      7.85541      2.83627         0.001122      0.002055      0.006415
      1.17029     16.54882     -1.51746         0.000536      0.005026     -0.000542
      0.91227     22.87964      4.11632        -0.000557      0.002110      0.002108
      0.90495      1.22168      0.60409        -0.000823     -0.003154     -0.002679
      3.44080      6.81523      2.28666        -0.000404      0.000741      0.003360
      5.49204     24.54101     -2.10146         0.001431     -0.002933      0.000878
      3.17698     -0.14140      3.42949         0.001219      0.000754     -0.000713
      1.15916      8.17731     -0.54414         0.000430     -0.002169      0.003144
      3.44521     17.27893      2.42586         0.001526     -0.001011      0.000196
 -----------------------------------------------------------------------------------
    total drift:                                0.003962      0.015320     -0.033155


--------------------------------------------------------------------------------------------------------



  FREE ENERGIE OF THE ION-ELECTRON SYSTEM (eV)
  ---------------------------------------------------
  free  energy   TOTEN  =     -1163.50301434 eV

  energy  without entropy=    -1163.50301434  energy(sigma->0) =    -1163.50301434
 


--------------------------------------------------------------------------------------------------------


    POTLOK:  cpu time    0.1275: real time    0.1275


--------------------------------------------------------------------------------------------------------




--------------------------------------------------------------------------------------------------------


  
 reached required accuracy - stopping structural energy minimisation
 writing wavefunctions
     LOOP+:  cpu time  399.2244: real time  409.9114
    4ORBIT:  cpu time    0.0000: real time    0.0000

 total amount of memory used by VASP MPI-rank0    98382. kBytes
=======================================================================

   base      :      30000. kBytes
   nonlr-proj:       6144. kBytes
   fftplans  :       5844. kBytes
   grid      :      10227. kBytes
   one-center:        606. kBytes
   wavefun   :      45561. kBytes
 
  
  
 General timing and accounting informations for this job:
 ========================================================
  
                  Total CPU time used (sec):      462.151
                            User time (sec):      421.427
                          System time (sec):       40.724
                         Elapsed time (sec):      474.302
  
                   Maximum memory used (kb):     1037972.
                   Average memory used (kb):           0.
  
                          Minor page faults:       372937
                          Major page faults:            7
                 Voluntary context switches:        10519
