 vasp.6.0.8 29Jun18 (build Mar 14 2019 11:44:20) complex                        
  
 executed on             LinuxIFC date 2021.01.11  19:24:45
 running  128 mpi-ranks, with    1 threads/rank
 distrk:  each k-point on  128 cores,    1 groups
 distr:  one band on NCORES_PER_BAND=   4 cores,   32 groups


--------------------------------------------------------------------------------------------------------


 INCAR:
 POTCAR:    PAW_PBE C 08Apr2002                   
 POTCAR:    PAW_PBE Co 02Aug2007                  
 POTCAR:    PAW_PBE H 15Jun2001                   
 POTCAR:    PAW_PBE N 08Apr2002                   
 POTCAR:    PAW_PBE O 08Apr2002                   
 POTCAR:    PAW_PBE C 08Apr2002                   
   VRHFIN =C: s2p2                                                              
   LEXCH  = PE                                                                  
   EATOM  =   147.1560 eV,   10.8157 Ry                                         
                                                                                
   TITEL  = PAW_PBE C 08Apr2002                                                 
   LULTRA =        F    use ultrasoft PP ?                                      
   IUNSCR =        1    unscreen: 0-lin 1-nonlin 2-no                           
   RPACOR =    1.200    partial core radius                                     
   POMASS =   12.011; ZVAL   =    4.000    mass and valenz                      
   RCORE  =    1.500    outmost cutoff radius                                   
   RWIGS  =    1.630; RWIGS  =    0.863    wigner-seitz radius (au A)           
   ENMAX  =  400.000; ENMIN  =  300.000 eV                                      
   ICORE  =        2    local potential                                         
   LCOR   =        T    correct aug charges                                     
   LPAW   =        T    paw PP                                                  
   EAUG   =  644.873                                                            
   DEXC   =    0.000                                                            
   RMAX   =    1.529    core radius for proj-oper                               
   RAUG   =    1.300    factor for augmentation sphere                          
   RDEP   =    1.501    radius for radial grids                                 
   RDEPT  =    1.300    core radius for aug-charge                              
                                                                                
   Atomic configuration                                                         
    4 entries                                                                   
     n  l   j            E        occ.                                          
     1  0  0.50      -273.3789   2.0000                                         
     2  0  0.50       -13.7508   2.0000                                         
     2  1  0.50        -5.2854   2.0000                                         
     3  2  1.50        -5.4423   0.0000                                         
   Description                                                                  
     l       E           TYP  RCUT    TYP  RCUT                                 
     0    -13.7508458     23  1.200                                             
     0     -8.2022199     23  1.200                                             
     1     -5.2854383     23  1.500                                             
     1     34.0145650     23  1.500                                             
     2     -5.4423304      7  1.500                                             
  local pseudopotential read in
  partial core-charges read in
  partial kinetic energy density read in
  atomic valenz-charges read in
  non local Contribution for L=           0  read in
    real space projection operators read in
  non local Contribution for L=           0  read in
    real space projection operators read in
  non local Contribution for L=           1  read in
    real space projection operators read in
  non local Contribution for L=           1  read in
    real space projection operators read in
    PAW grid and wavefunctions read in
 
   number of l-projection  operators is LMAX  =           4
   number of lm-projection operators is LMMAX =           8
 
 POTCAR:    PAW_PBE Co 02Aug2007                  
   VRHFIN =Co: d8 s1                                                            
   LEXCH  = PE                                                                  
   EATOM  =   813.3670 eV,   59.7808 Ry                                         
                                                                                
   TITEL  = PAW_PBE Co 02Aug2007                                                
   LULTRA =        F    use ultrasoft PP ?                                      
   IUNSCR =        1    unscreen: 0-lin 1-nonlin 2-no                           
   RPACOR =    2.000    partial core radius                                     
   POMASS =   58.933; ZVAL   =    9.000    mass and valenz                      
   RCORE  =    2.300    outmost cutoff radius                                   
   RWIGS  =    2.460; RWIGS  =    1.302    wigner-seitz radius (au A)           
   ENMAX  =  267.968; ENMIN  =  200.976 eV                                      
   RCLOC  =    1.203    cutoff for local pot                                    
   LCOR   =        T    correct aug charges                                     
   LPAW   =        T    paw PP                                                  
   EAUG   =  477.818                                                            
   DEXC   =    0.000                                                            
   RMAX   =    2.360    core radius for proj-oper                               
   RAUG   =    1.300    factor for augmentation sphere                          
   RDEP   =    2.393    radius for radial grids                                 
   RDEPT  =    1.864    core radius for aug-charge                              
                                                                                
   Atomic configuration                                                         
    9 entries                                                                   
     n  l   j            E        occ.                                          
     1  0  0.50     -7587.6674   2.0000                                         
     2  0  0.50      -893.6084   2.0000                                         
     2  1  1.50      -764.5805   6.0000                                         
     3  0  0.50       -97.5973   2.0000                                         
     3  1  1.50       -60.9648   6.0000                                         
     3  2  2.50        -4.2382   8.0000                                         
     4  0  0.50        -4.3746   1.0000                                         
     4  1  1.50        -4.0817   0.0000                                         
     4  3  2.50        -1.3606   0.0000                                         
   Description                                                                  
     l       E           TYP  RCUT    TYP  RCUT                                 
     2     -4.2382362     23  2.300                                             
     2     -5.5988188     23  2.300                                             
     0     -4.3745797     23  2.300                                             
     0      5.7660125     23  2.300                                             
     1     -2.7211652     23  2.300                                             
     1     16.9860234     23  2.300                                             
  local pseudopotential read in
  partial core-charges read in
  partial kinetic energy density read in
  atomic valenz-charges read in
  non local Contribution for L=           2  read in
    real space projection operators read in
  non local Contribution for L=           2  read in
    real space projection operators read in
  non local Contribution for L=           0  read in
    real space projection operators read in
  non local Contribution for L=           0  read in
    real space projection operators read in
  non local Contribution for L=           1  read in
    real space projection operators read in
  non local Contribution for L=           1  read in
    real space projection operators read in
    PAW grid and wavefunctions read in
 
   number of l-projection  operators is LMAX  =           6
   number of lm-projection operators is LMMAX =          18
 
 POTCAR:    PAW_PBE H 15Jun2001                   
   VRHFIN =H: ultrasoft test                                                    
   LEXCH  = PE                                                                  
   EATOM  =    12.4884 eV,    0.9179 Ry                                         
                                                                                
   TITEL  = PAW_PBE H 15Jun2001                                                 
   LULTRA =        F    use ultrasoft PP ?                                      
   IUNSCR =        0    unscreen: 0-lin 1-nonlin 2-no                           
   RPACOR =    0.000    partial core radius                                     
   POMASS =    1.000; ZVAL   =    1.000    mass and valenz                      
   RCORE  =    1.100    outmost cutoff radius                                   
   RWIGS  =    0.700; RWIGS  =    0.370    wigner-seitz radius (au A)           
   ENMAX  =  250.000; ENMIN  =  200.000 eV                                      
   RCLOC  =    0.701    cutoff for local pot                                    
   LCOR   =        T    correct aug charges                                     
   LPAW   =        T    paw PP                                                  
   EAUG   =  400.000                                                            
   RMAX   =    1.123    core radius for proj-oper                               
   RAUG   =    1.200    factor for augmentation sphere                          
   RDEP   =    1.112    radius for radial grids                                 
   RDEPT  =    0.926    core radius for aug-charge                              
                                                                                
   Atomic configuration                                                         
    2 entries                                                                   
     n  l   j            E        occ.                                          
     1  0  0.50        -6.4927   1.0000                                         
     2  1  0.50        -3.4015   0.0000                                         
   Description                                                                  
     l       E           TYP  RCUT    TYP  RCUT                                 
     0     -6.4927494     23  1.100                                             
     0      6.8029130     23  1.100                                             
     1     -4.0817478     23  1.100                                             
  local pseudopotential read in
  atomic valenz-charges read in
  non local Contribution for L=           0  read in
    real space projection operators read in
  non local Contribution for L=           0  read in
    real space projection operators read in
  non local Contribution for L=           1  read in
    real space projection operators read in
    PAW grid and wavefunctions read in
 
   number of l-projection  operators is LMAX  =           3
   number of lm-projection operators is LMMAX =           5
 
 POTCAR:    PAW_PBE N 08Apr2002                   
   VRHFIN =N: s2p3                                                              
   LEXCH  = PE                                                                  
   EATOM  =   264.5486 eV,   19.4438 Ry                                         
                                                                                
   TITEL  = PAW_PBE N 08Apr2002                                                 
   LULTRA =        F    use ultrasoft PP ?                                      
   IUNSCR =        1    unscreen: 0-lin 1-nonlin 2-no                           
   RPACOR =    1.200    partial core radius                                     
   POMASS =   14.001; ZVAL   =    5.000    mass and valenz                      
   RCORE  =    1.500    outmost cutoff radius                                   
   RWIGS  =    1.400; RWIGS  =    0.741    wigner-seitz radius (au A)           
   ENMAX  =  400.000; ENMIN  =  300.000 eV                                      
   ICORE  =        2    local potential                                         
   LCOR   =        T    correct aug charges                                     
   LPAW   =        T    paw PP                                                  
   EAUG   =  627.112                                                            
   DEXC   =    0.000                                                            
   RMAX   =    1.529    core radius for proj-oper                               
   RAUG   =    1.300    factor for augmentation sphere                          
   RDEP   =    1.514    radius for radial grids                                 
   RDEPT  =    1.338    core radius for aug-charge                              
                                                                                
   Atomic configuration                                                         
    4 entries                                                                   
     n  l   j            E        occ.                                          
     1  0  0.50      -384.7179   2.0000                                         
     2  0  0.50       -18.5828   2.0000                                         
     2  1  0.50        -7.0898   3.0000                                         
     3  2  1.50        -6.8029   0.0000                                         
   Description                                                                  
     l       E           TYP  RCUT    TYP  RCUT                                 
     0    -18.5828119     23  1.200                                             
     0    -13.5018863     23  1.200                                             
     1     -7.0897853     23  1.500                                             
     1      9.5240782     23  1.500                                             
     2     -6.8029130      7  1.500                                             
  local pseudopotential read in
  partial core-charges read in
  partial kinetic energy density read in
  atomic valenz-charges read in
  non local Contribution for L=           0  read in
    real space projection operators read in
  non local Contribution for L=           0  read in
    real space projection operators read in
  non local Contribution for L=           1  read in
    real space projection operators read in
  non local Contribution for L=           1  read in
    real space projection operators read in
    PAW grid and wavefunctions read in
 
   number of l-projection  operators is LMAX  =           4
   number of lm-projection operators is LMMAX =           8
 
 POTCAR:    PAW_PBE O 08Apr2002                   
   VRHFIN =O: s2p4                                                              
   LEXCH  = PE                                                                  
   EATOM  =   432.3788 eV,   31.7789 Ry                                         
                                                                                
   TITEL  = PAW_PBE O 08Apr2002                                                 
   LULTRA =        F    use ultrasoft PP ?                                      
   IUNSCR =        1    unscreen: 0-lin 1-nonlin 2-no                           
   RPACOR =    1.200    partial core radius                                     
   POMASS =   16.000; ZVAL   =    6.000    mass and valenz                      
   RCORE  =    1.520    outmost cutoff radius                                   
   RWIGS  =    1.550; RWIGS  =    0.820    wigner-seitz radius (au A)           
   ENMAX  =  400.000; ENMIN  =  300.000 eV                                      
   ICORE  =        2    local potential                                         
   LCOR   =        T    correct aug charges                                     
   LPAW   =        T    paw PP                                                  
   EAUG   =  605.392                                                            
   DEXC   =    0.000                                                            
   RMAX   =    1.553    core radius for proj-oper                               
   RAUG   =    1.300    factor for augmentation sphere                          
   RDEP   =    1.550    radius for radial grids                                 
   RDEPT  =    1.329    core radius for aug-charge                              
                                                                                
   Atomic configuration                                                         
    4 entries                                                                   
     n  l   j            E        occ.                                          
     1  0  0.50      -514.6923   2.0000                                         
     2  0  0.50       -23.9615   2.0000                                         
     2  1  0.50        -9.0305   4.0000                                         
     3  2  1.50        -9.5241   0.0000                                         
   Description                                                                  
     l       E           TYP  RCUT    TYP  RCUT                                 
     0    -23.9615318     23  1.200                                             
     0     -9.5240782     23  1.200                                             
     1     -9.0304911     23  1.520                                             
     1      8.1634956     23  1.520                                             
     2     -9.5240782      7  1.500                                             
  local pseudopotential read in
  partial core-charges read in
  partial kinetic energy density read in
  kinetic energy density of atom read in
  atomic valenz-charges read in
  non local Contribution for L=           0  read in
    real space projection operators read in
  non local Contribution for L=           0  read in
    real space projection operators read in
  non local Contribution for L=           1  read in
    real space projection operators read in
  non local Contribution for L=           1  read in
    real space projection operators read in
    PAW grid and wavefunctions read in
 
   number of l-projection  operators is LMAX  =           4
   number of lm-projection operators is LMMAX =           8
 
 Optimization of the real space projectors (new method)

 maximal supplied QI-value         = 25.13
 optimisation between [QCUT,QGAM] = [ 12.32, 24.88] = [ 42.47,173.37] Ry 
 Optimized for a Real-space Cutoff    1.06 Angstroem

   l    n(q)    QCUT    max X(q) W(low)/X(q) W(high)/X(q)  e(spline) 
   0      8    12.315   115.676    0.34E-03    0.18E-03    0.23E-06
   0      8    12.315    87.132    0.34E-03    0.18E-03    0.22E-06
   1      7    12.315     4.429    0.45E-03    0.12E-03    0.18E-06
   1      7    12.315     2.733    0.35E-03    0.97E-04    0.15E-06
 Optimization of the real space projectors (new method)

 maximal supplied QI-value         = 16.25
 optimisation between [QCUT,QGAM] = [ 12.51, 25.03] = [ 43.85,175.40] Ry 
 Optimized for a Real-space Cutoff    1.31 Angstroem

   l    n(q)    QCUT    max X(q) W(low)/X(q) W(high)/X(q)  e(spline) 
   2      9    12.514    65.824    0.30E-03    0.46E-03    0.43E-06
   2      9    12.514    61.429    0.31E-03    0.46E-03    0.44E-06
   0     10    12.514    56.174    0.90E-04    0.33E-03    0.30E-06
   0     10    12.514    31.263    0.81E-04    0.30E-03    0.28E-06
   1      9    12.514    19.828    0.38E-03    0.65E-04    0.24E-06
   1      9    12.514    15.139    0.32E-03    0.60E-04    0.20E-06
 Optimization of the real space projectors (new method)

 maximal supplied QI-value         = 34.20
 optimisation between [QCUT,QGAM] = [ 12.31, 24.97] = [ 42.46,174.58] Ry 
 Optimized for a Real-space Cutoff    1.00 Angstroem

   l    n(q)    QCUT    max X(q) W(low)/X(q) W(high)/X(q)  e(spline) 
   0      7    12.313    19.460    0.14E-03    0.42E-03    0.16E-06
   0      7    12.313    12.209    0.12E-03    0.40E-03    0.16E-06
   1      7    12.313     4.655    0.33E-03    0.59E-03    0.89E-07
 Optimization of the real space projectors (new method)

 maximal supplied QI-value         = 25.13
 optimisation between [QCUT,QGAM] = [ 12.32, 24.88] = [ 42.47,173.37] Ry 
 Optimized for a Real-space Cutoff    1.20 Angstroem

   l    n(q)    QCUT    max X(q) W(low)/X(q) W(high)/X(q)  e(spline) 
   0      9    12.315    79.467    0.14E-03    0.22E-04    0.37E-06
   0      9    12.315    66.151    0.14E-03    0.23E-04    0.36E-06
   1      8    12.315    22.077    0.30E-03    0.54E-03    0.45E-06
   1      8    12.315    15.894    0.30E-03    0.55E-03    0.45E-06
 Optimization of the real space projectors (new method)

 maximal supplied QI-value         = 24.76
 optimisation between [QCUT,QGAM] = [ 12.38, 25.00] = [ 42.90,175.06] Ry 
 Optimized for a Real-space Cutoff    1.13 Angstroem

   l    n(q)    QCUT    max X(q) W(low)/X(q) W(high)/X(q)  e(spline) 
   0      8    12.378    20.381    0.16E-03    0.54E-05    0.27E-06
   0      8    12.378    15.268    0.17E-03    0.61E-05    0.29E-06
   1      8    12.378     5.964    0.38E-03    0.23E-03    0.28E-06
   1      8    12.378     5.382    0.33E-03    0.20E-03    0.25E-06
  PAW_PBE C 08Apr2002                   :
 energy of atom  1       EATOM= -147.1560
 kinetic energy error for atom=    0.0057 (will be added to EATOM!!)
  PAW_PBE Co 02Aug2007                  :
 energy of atom  2       EATOM= -813.3670
 kinetic energy error for atom=    0.0018 (will be added to EATOM!!)
  PAW_PBE H 15Jun2001                   :
 energy of atom  3       EATOM=  -12.4884
 kinetic energy error for atom=    0.0004 (will be added to EATOM!!)
  PAW_PBE N 08Apr2002                   :
 energy of atom  4       EATOM= -264.5486
 kinetic energy error for atom=    0.0103 (will be added to EATOM!!)
  PAW_PBE O 08Apr2002                   :
 energy of atom  5       EATOM= -432.3788
 kinetic energy error for atom=    0.0168 (will be added to EATOM!!)
 
 
 POSCAR: CoH_5	
  positions in direct lattice
  velocities in cartesian coordinates
 exchange correlation table for  LEXCH =        8
   RHO(1)=    0.500       N(1)  =     2000
   RHO(2)=  100.500       N(2)  =     4000
 


--------------------------------------------------------------------------------------------------------


 ion  position               nearest neighbor table
   1  0.880  0.964  0.123- 107 1.09 117 1.35  65 1.40
   2  0.938  0.979  0.405- 112 1.08 118 1.35  65 1.40
   3  0.880  0.817  0.925- 116 1.09 119 1.35  66 1.40
   4  0.620  0.464  0.627- 110 1.09 120 1.35  67 1.40
   5  0.562  0.301  0.147- 111 1.08 121 1.35  68 1.40
   6  0.062  0.801  0.142- 115 1.08 122 1.35  69 1.40
   7  0.562  0.479  0.910- 101 1.09 123 1.35  67 1.40
   8  0.620  0.316  0.430- 113 1.09 124 1.35  68 1.40
   9  0.438  0.479  0.411- 114 1.09 125 1.35  70 1.40
  10  0.120  0.817  0.425- 104 1.09 126 1.35  69 1.40
  11  0.062  0.979  0.905- 105 1.08 127 1.35  71 1.40
  12  0.438  0.301  0.648- 102 1.09 128 1.35  72 1.40
  13  0.937  0.801  0.642- 108 1.08 129 1.35  66 1.40
  14  0.120  0.964  0.622- 109 1.09 130 1.35  71 1.40
  15  0.380  0.316  0.931- 106 1.09 131 1.35  72 1.40
  16  0.380  0.464  0.127- 103 1.09 132 1.35  70 1.40
  17  0.805  0.033  0.458- 141 1.23 133 1.42  33 1.48
  18  0.848  0.078  0.072- 142 1.23 133 1.42  34 1.48
  19  0.848  0.703  0.978- 143 1.23 134 1.42  35 1.48
  20  0.652  0.577  0.574- 144 1.23 135 1.42  36 1.48
  21  0.652  0.203  0.482- 145 1.23 136 1.42  37 1.48
  22  0.194  0.747  0.092- 146 1.23 137 1.42  38 1.48
  23  0.694  0.533  0.960- 147 1.23 135 1.42  39 1.48
  24  0.695  0.247  0.096- 148 1.23 136 1.42  40 1.48
  25  0.306  0.533  0.460- 149 1.23 138 1.42  41 1.48
  26  0.152  0.703  0.478- 150 1.23 137 1.42  42 1.48
  27  0.152  0.078  0.572- 151 1.23 139 1.42  43 1.48
  28  0.348  0.202  0.982- 152 1.23 140 1.42  44 1.48
  29  0.805  0.747  0.593- 153 1.23 134 1.42  45 1.48
  30  0.194  0.033  0.957- 154 1.23 139 1.42  46 1.48
  31  0.305  0.247  0.597- 155 1.23 140 1.42  47 1.48
  32  0.348  0.577  0.075- 156 1.23 138 1.42  48 1.48
  33  0.766  0.077  0.458-  49 1.39  73 1.42  17 1.48
  34  0.809  0.121  0.083-  50 1.39  73 1.42  18 1.48
  35  0.809  0.660  0.969-  51 1.39  74 1.42  19 1.48
  36  0.691  0.621  0.585-  52 1.39  75 1.42  20 1.48
  37  0.691  0.159  0.470-  53 1.39  76 1.42  21 1.48
  38  0.234  0.703  0.093-  54 1.39  77 1.42  22 1.48
  39  0.734  0.577  0.960-  55 1.39  75 1.42  23 1.48
  40  0.734  0.203  0.095-  56 1.39  76 1.42  24 1.48
  41  0.266  0.577  0.460-  57 1.39  78 1.42  25 1.48
  42  0.191  0.660  0.468-  58 1.39  77 1.42  26 1.48
  43  0.191  0.121  0.584-  59 1.39  79 1.42  27 1.48
  44  0.309  0.159  0.971-  60 1.39  80 1.42  28 1.48
  45  0.766  0.703  0.593-  61 1.39  74 1.42  29 1.48
  46  0.234  0.077  0.958-  62 1.39  79 1.42  30 1.48
  47  0.266  0.203  0.596-  63 1.39  80 1.42  31 1.48
  48  0.309  0.621  0.084-  64 1.39  78 1.42  32 1.48
  49  0.726  0.076  0.642-  88 1.09  33 1.39  53 1.40
  50  0.812  0.163  0.905-  99 1.09  34 1.39  56 1.40
  51  0.811  0.617  0.148-  93 1.09  35 1.39  55 1.40
  52  0.688  0.663  0.406-  90 1.09  36 1.39  61 1.40
  53  0.689  0.117  0.648-  98 1.09  37 1.39  49 1.40
  54  0.274  0.704  0.909-  96 1.09  38 1.39  64 1.40
  55  0.774  0.576  0.143-  86 1.09  39 1.39  51 1.40
  56  0.774  0.204  0.911-  87 1.09  40 1.39  50 1.40
  57  0.226  0.576  0.643-  95 1.09  41 1.39  58 1.40
  58  0.188  0.617  0.647-  91 1.09  42 1.39  57 1.40
  59  0.188  0.163  0.406-  92 1.09  43 1.39  63 1.40
  60  0.311  0.117  0.149-  85 1.09  44 1.39  62 1.40
  61  0.725  0.704  0.410-  89 1.09  45 1.39  52 1.40
  62  0.274  0.076  0.142- 100 1.09  46 1.39  60 1.40
  63  0.226  0.204  0.412-  94 1.09  47 1.39  59 1.40
  64  0.312  0.663  0.905-  97 1.09  48 1.39  54 1.40
  65  0.885  0.996  0.262-   2 1.40   1 1.40 133 1.42
  66  0.885  0.785  0.786-  13 1.40   3 1.40 134 1.42
  67  0.615  0.496  0.766-   7 1.40   4 1.40 135 1.42
  68  0.615  0.284  0.290-   5 1.40   8 1.40 136 1.42
  69  0.115  0.785  0.286-   6 1.40  10 1.40 137 1.42
  70  0.385  0.496  0.267-   9 1.40  16 1.40 138 1.42
  71  0.115  0.996  0.762-  11 1.40  14 1.40 139 1.42
  72  0.385  0.284  0.791-  12 1.40  15 1.40 140 1.42
  73  0.769  0.119  0.274-  33 1.42  34 1.42  76 1.43
  74  0.769  0.661  0.779-  45 1.42  35 1.42  75 1.43
  75  0.731  0.619  0.774-  39 1.42  36 1.42  74 1.43
  76  0.731  0.161  0.280-  40 1.42  37 1.42  73 1.43
  77  0.231  0.661  0.278-  38 1.42  42 1.42  78 1.43
  78  0.269  0.619  0.274-  41 1.42  48 1.42  77 1.43
  79  0.231  0.119  0.774-  46 1.42  43 1.42  80 1.43
  80  0.269  0.161  0.780-  47 1.42  44 1.42  79 1.43
  81  0.976  0.890  0.023- 119 1.95 117 1.95 127 1.96 122 1.96
  82  0.024  0.890  0.523- 126 1.95 130 1.95 118 1.96 129 1.96
  83  0.524  0.390  0.529- 124 1.95 120 1.95 125 1.96 128 1.96
  84  0.476  0.390  0.029- 131 1.95 132 1.95 123 1.96 121 1.96
  85  0.342  0.117  0.293-  60 1.09
  86  0.776  0.543  0.283-  55 1.09
  87  0.776  0.238  0.772-  56 1.09
  88  0.724  0.043  0.782-  49 1.09
  89  0.724  0.737  0.270-  61 1.09
  90  0.657  0.663  0.262-  52 1.09
  91  0.157  0.617  0.791-  58 1.09
  92  0.157  0.164  0.261-  59 1.09
  93  0.843  0.617  0.291-  51 1.09
  94  0.224  0.238  0.272-  63 1.09
  95  0.224  0.543  0.783-  57 1.09
  96  0.276  0.737  0.769-  54 1.09
  97  0.343  0.663  0.761-  64 1.09
  98  0.657  0.117  0.793-  53 1.09
  99  0.843  0.163  0.761-  50 1.09
 100  0.275  0.042  0.281-  62 1.09
 101  0.543  0.493  0.046-   7 1.09
 102  0.457  0.287  0.513-  12 1.09
 103  0.348  0.464  0.987-  16 1.09
 104  0.152  0.816  0.565-  10 1.09
 105  0.043  0.993  0.041-  11 1.08
 106  0.347  0.316  0.071-  15 1.09
 107  0.847  0.965  0.983-   1 1.09
 108  0.957  0.787  0.507-  13 1.08
 109  0.153  0.965  0.482-  14 1.09
 110  0.652  0.464  0.486-   4 1.09
 111  0.543  0.287  0.012-   5 1.08
 112  0.957  0.993  0.541-   2 1.08
 113  0.653  0.316  0.570-   8 1.09
 114  0.457  0.493  0.546-   9 1.09
 115  0.043  0.787  0.007-   6 1.08
 116  0.847  0.816  0.066-   3 1.09
 117  0.928  0.930  0.182-   1 1.35 118 1.37  81 1.95
 118  0.963  0.940  0.354-   2 1.35 117 1.37  82 1.96
 119  0.927  0.850  0.865-   3 1.35 129 1.37  81 1.95
 120  0.572  0.430  0.687-   4 1.35 123 1.37  83 1.95
 121  0.537  0.340  0.199-   5 1.35 124 1.37  84 1.96
 122  0.037  0.841  0.193-   6 1.35 126 1.37  81 1.96
 123  0.537  0.439  0.860-   7 1.35 120 1.37  84 1.96
 124  0.572  0.350  0.370-   8 1.35 121 1.37  83 1.95
 125  0.463  0.439  0.360-   9 1.35 132 1.37  83 1.96
 126  0.072  0.850  0.365-  10 1.35 122 1.37  82 1.95
 127  0.037  0.940  0.854-  11 1.35 130 1.37  81 1.96
 128  0.463  0.340  0.699-  12 1.35 131 1.37  83 1.96
 129  0.963  0.841  0.693-  13 1.35 119 1.37  82 1.96
 130  0.072  0.930  0.682-  14 1.35 127 1.37  82 1.95
 131  0.428  0.350  0.871-  15 1.35 128 1.37  84 1.95
 132  0.427  0.430  0.188-  16 1.35 125 1.37  84 1.95
 133  0.844  0.036  0.263-  18 1.42  17 1.42  65 1.42
 134  0.844  0.744  0.787-  19 1.42  29 1.42  66 1.42
 135  0.655  0.536  0.766-  20 1.42  23 1.42  67 1.42
 136  0.656  0.244  0.290-  21 1.42  24 1.42  68 1.42
 137  0.155  0.744  0.286-  26 1.42  22 1.42  69 1.42
 138  0.345  0.536  0.266-  32 1.42  25 1.42  70 1.42
 139  0.155  0.036  0.763-  27 1.42  30 1.42  71 1.42
 140  0.344  0.244  0.791-  28 1.42  31 1.42  72 1.42
 141  0.805  0.996  0.615-  17 1.23
 142  0.882  0.077  0.907-  18 1.23
 143  0.882  0.704  0.142-  19 1.23
 144  0.618  0.577  0.410-  20 1.23
 145  0.619  0.203  0.647-  21 1.23
 146  0.195  0.784  0.934-  22 1.23
 147  0.695  0.496  0.118-  23 1.23
 148  0.695  0.284  0.938-  24 1.23
 149  0.305  0.496  0.619-  25 1.23
 150  0.118  0.704  0.642-  26 1.23
 151  0.118  0.077  0.407-  27 1.23
 152  0.382  0.203  0.147-  28 1.23
 153  0.805  0.784  0.434-  29 1.23
 154  0.195  0.996  0.114-  30 1.23
 155  0.305  0.284  0.439-  31 1.23
 156  0.382  0.577  0.910-  32 1.23
 

IMPORTANT INFORMATION: All symmetrisations will be switched off!
NOSYMM: (Re-)initialisation of all symmetry stuff for point group C_1.


----------------------------------------------------------------------------------------

                                     Primitive cell                                     

  volume of cell :    3438.4610

  direct lattice vectors                    reciprocal lattice vectors
    20.587008033 -0.001770633  0.006678774     0.048574331  0.000002383 -0.000019514
     0.000208193 28.058524392  3.945030362     0.000004660  0.036306296 -0.004740416
     0.002397259  0.791748386  6.063911671    -0.000056532 -0.023619977  0.167994072

  length of vectors
    20.587009192 28.334502919  6.115381919     0.048574335  0.036614460  0.169646440

  position of ions in fractional coordinates (direct lattice)
     0.879944184  0.963884610  0.122634283
     0.937592164  0.979402052  0.405469211
     0.879930407  0.816585426  0.925362639
     0.619682814  0.463715409  0.626730879
     0.562341045  0.300616842  0.147392211
     0.062258837  0.800958030  0.141935011
     0.562178892  0.479110858  0.910431157
     0.620021262  0.316299534  0.429795918
     0.437649779  0.479099071  0.410645243
     0.119822176  0.816584556  0.424712699
     0.062331201  0.979400932  0.905129576
     0.437686420  0.300528368  0.647842923
     0.937459446  0.800985480  0.642156317
     0.119973284  0.963923911  0.621937110
     0.380009228  0.316156179  0.930634905
     0.380158915  0.463693622  0.127197892
     0.805481844  0.033112378  0.457539912
     0.847908066  0.077580912  0.072054613
     0.847957395  0.702804600  0.978372904
     0.651573460  0.577443211  0.574411369
     0.652249932  0.202560586  0.481599444
     0.194380555  0.746935932  0.092131371
     0.694004868  0.533288148  0.960125637
     0.694524477  0.246956977  0.095744018
     0.305816710  0.533332608  0.460473475
     0.151746505  0.702805400  0.477914559
     0.152017973  0.077692265  0.571886830
     0.347776987  0.202387907  0.982055383
     0.805472059  0.746949544  0.592677181
     0.194463055  0.033049527  0.956811335
     0.305498548  0.246959480  0.596639305
     0.348355854  0.577417225  0.074554299
     0.765837133  0.076683764  0.458372913
     0.808925444  0.120829111  0.083410451
     0.808760143  0.659533189  0.968620133
     0.690659785  0.620725494  0.584564913
     0.691264951  0.159318290  0.470262772
     0.234212846  0.703334827  0.092909382
     0.733778159  0.576886815  0.959719452
     0.734303749  0.203430922  0.095111728
     0.266024638  0.576934492  0.459788556
     0.190993755  0.659557719  0.468276474
     0.191027752  0.120907011  0.583527806
     0.308647719  0.159205978  0.970625726
     0.765606628  0.703368101  0.593491991
     0.234030319  0.076633441  0.958166295
     0.265689305  0.203465593  0.595731631
     0.309202462  0.620691346  0.084358634
     0.725720402  0.075795307  0.642335061
     0.811548459  0.163139670  0.905156648
     0.811327663  0.617345008  0.147589119
     0.688082416  0.662903246  0.405601378
     0.688616338  0.116982466  0.648417756
     0.274415408  0.703999800  0.909415772
     0.774008728  0.576158146  0.143035752
     0.774391552  0.204305074  0.911087560
     0.225757520  0.576236140  0.643157668
     0.188397267  0.617412398  0.647479877
     0.188448197  0.163268590  0.405558147
     0.311152503  0.116847436  0.148670557
     0.725387277  0.704089695  0.410178352
     0.274018940  0.075693111  0.142313543
     0.225625158  0.204410181  0.411727607
     0.311740237  0.662808161  0.905021954
     0.884631952  0.995627911  0.262493700
     0.884621972  0.784725306  0.786059282
     0.614932735  0.495511606  0.766364705
     0.615318608  0.284456068  0.290422600
     0.115104579  0.784704980  0.285515067
     0.384921407  0.495501735  0.266744842
     0.115276884  0.995665978  0.761825775
     0.384738772  0.284321978  0.791243777
     0.768988131  0.119172546  0.273874888
     0.768664531  0.661039131  0.778873474
     0.730696825  0.619230862  0.774432148
     0.731209951  0.160973136  0.279789346
     0.231137740  0.661042989  0.278481822
     0.269127369  0.619236617  0.274266566
     0.230931164  0.119178465  0.773965261
     0.268738830  0.160950955  0.780141477
     0.975971206  0.890253245  0.023025943
     0.023879495  0.890271878  0.523086643
     0.523829301  0.389844894  0.528938198
     0.476008957  0.389815152  0.029222896
     0.342279363  0.116588548  0.293087338
     0.775518676  0.542984962  0.282897175
     0.775848275  0.237548178  0.771600664
     0.724181065  0.042505890  0.781566167
     0.723940742  0.737238631  0.270182274
     0.656812062  0.662980584  0.261765243
     0.157041362  0.617350952  0.791244362
     0.157291636  0.163508666  0.261234948
     0.842641970  0.617249652  0.291354001
     0.224204537  0.237684450  0.272422494
     0.224282771  0.543095561  0.783223842
     0.275823149  0.737095780  0.769113690
     0.342982808  0.662829880  0.761034468
     0.657393809  0.116778636  0.792683847
     0.842731384  0.163332425  0.760809824
     0.275461007  0.042391457  0.281456267
     0.542507700  0.492959475  0.045930219
     0.457373180  0.286585492  0.512655784
     0.347543682  0.464403189  0.986788214
     0.152483346  0.815992297  0.564878990
     0.042643843  0.993268442  0.040533841
     0.347231489  0.315577182  0.070620068
     0.847212059  0.964522019  0.982613459
     0.957122433  0.787030618  0.506979191
     0.152697054  0.964571715  0.481716303
     0.652312971  0.464431786  0.486186014
     0.542658731  0.286676096  0.012290981
     0.957319170  0.993307478  0.540620699
     0.652794287  0.315725742  0.569647052
     0.457332441  0.492971720  0.545975866
     0.042563262  0.787004023  0.006880378
     0.847305907  0.815967294  0.065821094
     0.927501107  0.930163168  0.181922670
     0.963002637  0.939876041  0.353895404
     0.927372781  0.850390648  0.864855014
     0.572348455  0.429816485  0.687153184
     0.536933343  0.340192697  0.198512484
     0.036936234  0.840615865  0.192574599
     0.536936326  0.439450783  0.859652170
     0.572451677  0.350000536  0.370219703
     0.462853240  0.439420456  0.359868628
     0.072391375  0.850383109  0.364520015
     0.036931453  0.939861275  0.853710746
     0.463057311  0.340133566  0.698760754
     0.962812412  0.840639376  0.692682031
     0.072428503  0.930174364  0.681535690
     0.427536758  0.349904139  0.870721153
     0.427446383  0.429777511  0.187532620
     0.844453443  0.036441945  0.263137031
     0.844477374  0.743816528  0.786653484
     0.654999676  0.536440785  0.766103774
     0.655554623  0.243642349  0.290177854
     0.155246829  0.743793992  0.286056905
     0.344873604  0.536443488  0.266426559
     0.155473877  0.036472189  0.762558173
     0.344483458  0.243527679  0.790941978
     0.804916932  0.995716901  0.615338482
     0.881669396  0.076837152  0.907249336
     0.881871472  0.703668023  0.142498723
     0.617800634  0.576565189  0.409968455
     0.618579836  0.203329691  0.646573753
     0.194943199  0.784189717  0.933580021
     0.694535808  0.495994306  0.118458692
     0.694986070  0.284320824  0.937783925
     0.305246354  0.496081191  0.619043828
     0.117781266  0.703655753  0.642098304
     0.118245244  0.077034036  0.407150875
     0.381517784  0.203070741  0.146831614
     0.805031929  0.784189083  0.434032376
     0.195105767  0.995564147  0.114111379
     0.305083463  0.284395314  0.439061520
     0.382235693  0.576524380  0.910222025

  ion indices of the primitive-cell ions
   primitive index   ion index
                 1           1
                 2           2
                 3           3
                 4           4
                 5           5
                 6           6
                 7           7
                 8           8
                 9           9
                10          10
                11          11
                12          12
                13          13
                14          14
                15          15
                16          16
                17          17
                18          18
                19          19
                20          20
                21          21
                22          22
                23          23
                24          24
                25          25
                26          26
                27          27
                28          28
                29          29
                30          30
                31          31
                32          32
                33          33
                34          34
                35          35
                36          36
                37          37
                38          38
                39          39
                40          40
                41          41
                42          42
                43          43
                44          44
                45          45
                46          46
                47          47
                48          48
                49          49
                50          50
                51          51
                52          52
                53          53
                54          54
                55          55
                56          56
                57          57
                58          58
                59          59
                60          60
                61          61
                62          62
                63          63
                64          64
                65          65
                66          66
                67          67
                68          68
                69          69
                70          70
                71          71
                72          72
                73          73
                74          74
                75          75
                76          76
                77          77
                78          78
                79          79
                80          80
                81          81
                82          82
                83          83
                84          84
                85          85
                86          86
                87          87
                88          88
                89          89
                90          90
                91          91
                92          92
                93          93
                94          94
                95          95
                96          96
                97          97
                98          98
                99          99
               100         100
               101         101
               102         102
               103         103
               104         104
               105         105
               106         106
               107         107
               108         108
               109         109
               110         110
               111         111
               112         112
               113         113
               114         114
               115         115
               116         116
               117         117
               118         118
               119         119
               120         120
               121         121
               122         122
               123         123
               124         124
               125         125
               126         126
               127         127
               128         128
               129         129
               130         130
               131         131
               132         132
               133         133
               134         134
               135         135
               136         136
               137         137
               138         138
               139         139
               140         140
               141         141
               142         142
               143         143
               144         144
               145         145
               146         146
               147         147
               148         148
               149         149
               150         150
               151         151
               152         152
               153         153
               154         154
               155         155
               156         156

----------------------------------------------------------------------------------------

 
 

Automatic generation of k-mesh.
 generate k-points for:    2    1    4
Space group operators:
 irot       det(A)        alpha          n_x          n_y          n_z        tau_x        tau_y        tau_z
    1     1.000000     0.000000     1.000000     0.000000     0.000000     0.000000     0.000000     0.000000
 
 Subroutine IBZKPT returns following result:
 ===========================================
 
 Found      6 irreducible k-points:
 
 Following reciprocal coordinates:
            Coordinates               Weight
  0.000000  0.000000  0.000000      1.000000
  0.500000 -0.000000  0.000000      1.000000
  0.000000 -0.000000  0.250000      2.000000
  0.500000 -0.000000  0.250000      2.000000
  0.000000 -0.000000  0.500000      1.000000
  0.500000  0.000000  0.500000      1.000000
 
 Following cartesian coordinates:
            Coordinates               Weight
  0.000000  0.000000  0.000000      1.000000
  0.024287  0.000001 -0.000010      1.000000
 -0.000014 -0.005905  0.041999      2.000000
  0.024273 -0.005904  0.041989      2.000000
 -0.000028 -0.011810  0.083997      1.000000
  0.024259 -0.011809  0.083987      1.000000
 


--------------------------------------------------------------------------------------------------------




 Dimension of arrays:
   k-points           NKPTS =      6   k-points in BZ     NKDIM =      6   number of bands    NBANDS=    384
   number of dos      NEDOS =    301   number of ions     NIONS =    156
   non local maximal  LDIM  =      6   non local SUM 2l+1 LMDIM =     18
   total plane-waves  NPLWV = 907200
   max r-space proj   IRMAX =   2515   max aug-charges    IRDMAX=  10604
   dimension x,y,z NGX =   126 NGY =  180 NGZ =   40
   dimension x,y,z NGXF=   252 NGYF=  360 NGZF=   80
   support grid    NGXF=   252 NGYF=  360 NGZF=   80
   ions per type =              80   4  32  24  16
   NGX,Y,Z   is equivalent  to a cutoff of  10.17, 10.56, 10.87 a.u.
   NGXF,Y,Z  is equivalent  to a cutoff of  20.35, 21.12, 21.75 a.u.

 SYSTEM =  flex_MOF                                
 POSCAR =  CoH_5	                                  

 Startparameter for this run:
   NWRITE =      2    write-flag & timer
   PREC   = normal    normal or accurate (medium, high low for compatibility)
   ISTART =      0    job   : 0-new  1-cont  2-samecut
   ICHARG =      2    charge: 1-file 2-atom 10-const
   ISPIN  =      2    spin polarized calculation?
   LNONCOLLINEAR =      F non collinear calculations
   LSORBIT =      F    spin-orbit coupling
   INIWAV =      1    electr: 0-lowe 1-rand  2-diag
   LASPH  =      F    aspherical Exc in radial PAW
   METAGGA=      F    non-selfconsistent MetaGGA calc.

 Electronic Relaxation 1
   ENCUT  =  600.0 eV  44.10 Ry    6.64 a.u.  41.12 56.59 12.21*2*pi/ulx,y,z
   ENINI  =  600.0     initial cutoff
   ENAUG  =  644.9 eV  augmentation charge cutoff
   NELM   =     80;   NELMIN=  8; NELMDL= -5     # of ELM steps 
   EDIFF  = 0.1E-05   stopping-criterion for ELM
   LREAL  =      T    real-space projection
   NLSPLINE    = F    spline interpolate recip. space projectors
   LCOMPAT=      F    compatible to vasp.4.4
   GGA_COMPAT  = T    GGA compatible to vasp.4.4-vasp.4.6
   LMAXPAW     = -100 max onsite density
   LMAXMIX     =    2 max onsite mixed and CHGCAR
   VOSKOWN=      0    Vosko Wilk Nusair interpolation
   ROPT   =   -0.00050  -0.00050  -0.00050  -0.00050
   ROPT   =   -0.00050
 Ionic relaxation
   EDIFFG = -.8E-02   stopping-criterion for IOM
   NSW    =    500    number of steps for IOM
   NBLOCK =      1;   KBLOCK =    500    inner block; outer block 
   IBRION =      2    ionic relax: 0-MD 1-quasi-New 2-CG
   NFREE  =      1    steps in history (QN), initial steepest desc. (CG)
   ISIF   =      4    stress and relaxation
   IWAVPR =     11    prediction:  0-non 1-charg 2-wave 3-comb
   ISYM   =      0    0-nonsym 1-usesym 2-fastsym
   LCORR  =      T    Harris-Foulkes like correction to forces

   POTIM  = 0.5000    time-step for ionic-motion
   TEIN   =    0.0    initial temperature
   TEBEG  =    0.0;   TEEND  =   0.0 temperature during run
   SMASS  =  -3.00    Nose mass-parameter (am)
   estimated Nose-frequenzy (Omega)   =  0.10E-29 period in steps = 0.13E+47 mass=  -0.969E-26a.u.
   SCALEE = 1.0000    scale energy and forces
   NPACO  =    256;   APACO  = 16.0  distance and # of slots for P.C.
   PSTRESS=    0.0 pullay stress

  Mass of Ions in am
   POMASS =  12.01 58.93  1.00 14.00 16.00
  Ionic Valenz
   ZVAL   =   4.00  9.00  1.00  5.00  6.00
  Atomic Wigner-Seitz radii
   RWIGS  =  -1.00 -1.00 -1.00 -1.00 -1.00
  virtual crystal weights 
   VCA    =   1.00  1.00  1.00  1.00  1.00
   NELECT =     604.0000    total number of electrons
   NUPDOWN=      -1.0000    fix difference up-down

 DOS related values:
   EMIN   =  10.00;   EMAX   =-10.00  energy-range for DOS
   EFERMI =   0.00
   ISMEAR =     0;   SIGMA  =   0.05  broadening in eV -4-tet -1-fermi 0-gaus

 Electronic relaxation 2 (details)
   IALGO  =     38    algorithm
   LDIAG  =      T    sub-space diagonalisation (order eigenvalues)
   LSUBROT=      F    optimize rotation matrix (better conditioning)
   TURBO    =      0    0=normal 1=particle mesh
   IRESTART =      0    0=no restart 2=restart with 2 vectors
   NREBOOT  =      0    no. of reboots
   NMIN     =      0    reboot dimension
   EREF     =   0.00    reference energy to select bands
   IMIX   =      4    mixing-type and parameters
     AMIX     =   0.40;   BMIX     =  1.00
     AMIX_MAG =   1.60;   BMIX_MAG =  1.00
     AMIN     =   0.10
     WC   =   100.;   INIMIX=   1;  MIXPRE=   1;  MAXMIX= -45

 Intra band minimization:
   WEIMIN = 0.0010     energy-eigenvalue tresh-hold
   EBREAK =  0.65E-09  absolut break condition
   DEPER  =   0.30     relativ break condition  

   TIME   =   0.40     timestep for ELM

  volume/ion in A,a.u.               =      22.04       148.74
  Fermi-wavevector in a.u.,A,eV,Ry     =   0.916852  1.732599 11.437290  0.840617
  Thomas-Fermi vector in A             =   2.041754
 
 Write flags
   LWAVE        =      T    write WAVECAR
   LDOWNSAMPLE  =      F    k-point downsampling of WAVECAR
   LCHARG       =      T    write CHGCAR
   LVTOT        =      F    write LOCPOT, total local potential
   LVHAR        =      F    write LOCPOT, Hartree potential only
   LELF         =      F    write electronic localiz. function (ELF)
   LORBIT       =     11    0 simple, 1 ext, 2 COOP (PROOUT), +10 PAW based schemes


 Dipole corrections
   LMONO  =      F    monopole corrections only (constant potential shift)
   LDIPOL =      F    correct potential (dipole corrections)
   IDIPOL =      0    1-x, 2-y, 3-z, 4-all directions 
   EPSILON=  1.0000000 bulk dielectric constant

 Exchange correlation treatment:
   GGA     =    PE    GGA type
   LEXCH   =     8    internal setting for exchange type
   VOSKOWN=      0    Vosko Wilk Nusair interpolation
   LHFCALC =     F    Hartree Fock is set to
   LHFONE  =     F    Hartree Fock one center treatment
   AEXX    =    0.0000 exact exchange contribution

 Linear response parameters
   LEPSILON=     F    determine dielectric tensor
   LRPA    =     F    only Hartree local field effects (RPA)
   LNABLA  =     F    use nabla operator in PAW spheres
   LVEL    =     F    velocity operator in full k-point grid
   LINTERFAST=   F  fast interpolation
   KINTER  =     0    interpolate to denser k-point grid
   CSHIFT  =0.1000    complex shift for real part using Kramers Kronig
   OMEGAMAX=  -1.0    maximum frequency
   DEG_THRESHOLD= 0.2000000E-02 threshold for treating states as degnerate
   RTIME   =   -0.100 relaxation time in fs
  (WPLASMAI=    0.000 imaginary part of plasma frequency in eV, 0.658/RTIME)
   DFIELD  = 0.0000000 0.0000000 0.0000000 field for delta impulse in time
 
 Orbital magnetization related:
   ORBITALMAG=     F  switch on orbital magnetization
   LCHIMAG   =     F  perturbation theory with respect to B field
   DQ        =  0.001000  dq finite difference perturbation B field
   LLRAUG    =     F  two centre corrections for induced B field



--------------------------------------------------------------------------------------------------------


 conjugate gradient relaxation of ions
 charge density and potential will be updated during run
 spin polarized calculation
 Variant of blocked Davidson
 Davidson routine will perform the subspace rotation
 perform sub-space diagonalisation
    after iterative eigenvector-optimisation
 modified Broyden-mixing scheme, WC =      100.0
 initial mixing is a Kerker type mixing with AMIX =  0.4000 and BMIX =      1.0000
 Hartree-type preconditioning will be used
 using additional bands           82
 real space projection scheme for non local part
 use partial core corrections
 calculate Harris-corrections to forces 
   (improved forces if not selfconsistent)
 use gradient corrections 
 use of overlap-Matrix (Vanderbilt PP)
 Gauss-broadening in eV      SIGMA  =   0.05


--------------------------------------------------------------------------------------------------------


  energy-cutoff  :      600.00
  volume of cell :     3438.46
      direct lattice vectors                 reciprocal lattice vectors
    20.587008033 -0.001770633  0.006678774     0.048574331  0.000002383 -0.000019514
     0.000208193 28.058524392  3.945030362     0.000004660  0.036306296 -0.004740416
     0.002397259  0.791748386  6.063911671    -0.000056532 -0.023619977  0.167994072

  length of vectors
    20.587009192 28.334502919  6.115381919     0.048574335  0.036614460  0.169646440


 
 k-points in units of 2pi/SCALE and weight: read from INCAR                         
   0.00000000  0.00000000  0.00000000       0.125
   0.02428717  0.00000119 -0.00000976       0.125
  -0.00001413 -0.00590499  0.04199852       0.250
   0.02427303 -0.00590380  0.04198876       0.250
  -0.00002827 -0.01180999  0.08399704       0.125
   0.02425890 -0.01180880  0.08398728       0.125
 
 k-points in reciprocal lattice and weights: read from INCAR                         
   0.00000000  0.00000000  0.00000000       0.125
   0.50000000 -0.00000000  0.00000000       0.125
   0.00000000 -0.00000000  0.25000000       0.250
   0.50000000 -0.00000000  0.25000000       0.250
   0.00000000 -0.00000000  0.50000000       0.125
   0.50000000  0.00000000  0.50000000       0.125
 
 position of ions in fractional coordinates (direct lattice) 
   0.87994418  0.96388461  0.12263428
   0.93759216  0.97940205  0.40546921
   0.87993041  0.81658543  0.92536264
   0.61968281  0.46371541  0.62673088
   0.56234104  0.30061684  0.14739221
   0.06225884  0.80095803  0.14193501
   0.56217889  0.47911086  0.91043116
   0.62002126  0.31629953  0.42979592
   0.43764978  0.47909907  0.41064524
   0.11982218  0.81658456  0.42471270
   0.06233120  0.97940093  0.90512958
   0.43768642  0.30052837  0.64784292
   0.93745945  0.80098548  0.64215632
   0.11997328  0.96392391  0.62193711
   0.38000923  0.31615618  0.93063490
   0.38015891  0.46369362  0.12719789
   0.80548184  0.03311238  0.45753991
   0.84790807  0.07758091  0.07205461
   0.84795739  0.70280460  0.97837290
   0.65157346  0.57744321  0.57441137
   0.65224993  0.20256059  0.48159944
   0.19438056  0.74693593  0.09213137
   0.69400487  0.53328815  0.96012564
   0.69452448  0.24695698  0.09574402
   0.30581671  0.53333261  0.46047347
   0.15174651  0.70280540  0.47791456
   0.15201797  0.07769227  0.57188683
   0.34777699  0.20238791  0.98205538
   0.80547206  0.74694954  0.59267718
   0.19446305  0.03304953  0.95681134
   0.30549855  0.24695948  0.59663931
   0.34835585  0.57741722  0.07455430
   0.76583713  0.07668376  0.45837291
   0.80892544  0.12082911  0.08341045
   0.80876014  0.65953319  0.96862013
   0.69065979  0.62072549  0.58456491
   0.69126495  0.15931829  0.47026277
   0.23421285  0.70333483  0.09290938
   0.73377816  0.57688682  0.95971945
   0.73430375  0.20343092  0.09511173
   0.26602464  0.57693449  0.45978856
   0.19099376  0.65955772  0.46827647
   0.19102775  0.12090701  0.58352781
   0.30864772  0.15920598  0.97062573
   0.76560663  0.70336810  0.59349199
   0.23403032  0.07663344  0.95816630
   0.26568930  0.20346559  0.59573163
   0.30920246  0.62069135  0.08435863
   0.72572040  0.07579531  0.64233506
   0.81154846  0.16313967  0.90515665
   0.81132766  0.61734501  0.14758912
   0.68808242  0.66290325  0.40560138
   0.68861634  0.11698247  0.64841776
   0.27441541  0.70399980  0.90941577
   0.77400873  0.57615815  0.14303575
   0.77439155  0.20430507  0.91108756
   0.22575752  0.57623614  0.64315767
   0.18839727  0.61741240  0.64747988
   0.18844820  0.16326859  0.40555815
   0.31115250  0.11684744  0.14867056
   0.72538728  0.70408970  0.41017835
   0.27401894  0.07569311  0.14231354
   0.22562516  0.20441018  0.41172761
   0.31174024  0.66280816  0.90502195
   0.88463195  0.99562791  0.26249370
   0.88462197  0.78472531  0.78605928
   0.61493274  0.49551161  0.76636470
   0.61531861  0.28445607  0.29042260
   0.11510458  0.78470498  0.28551507
   0.38492141  0.49550174  0.26674484
   0.11527688  0.99566598  0.76182578
   0.38473877  0.28432198  0.79124378
   0.76898813  0.11917255  0.27387489
   0.76866453  0.66103913  0.77887347
   0.73069683  0.61923086  0.77443215
   0.73120995  0.16097314  0.27978935
   0.23113774  0.66104299  0.27848182
   0.26912737  0.61923662  0.27426657
   0.23093116  0.11917846  0.77396526
   0.26873883  0.16095096  0.78014148
   0.97597121  0.89025325  0.02302594
   0.02387949  0.89027188  0.52308664
   0.52382930  0.38984489  0.52893820
   0.47600896  0.38981515  0.02922290
   0.34227936  0.11658855  0.29308734
   0.77551868  0.54298496  0.28289718
   0.77584827  0.23754818  0.77160066
   0.72418107  0.04250589  0.78156617
   0.72394074  0.73723863  0.27018227
   0.65681206  0.66298058  0.26176524
   0.15704136  0.61735095  0.79124436
   0.15729164  0.16350867  0.26123495
   0.84264197  0.61724965  0.29135400
   0.22420454  0.23768445  0.27242249
   0.22428277  0.54309556  0.78322384
   0.27582315  0.73709578  0.76911369
   0.34298281  0.66282988  0.76103447
   0.65739381  0.11677864  0.79268385
   0.84273138  0.16333243  0.76080982
   0.27546101  0.04239146  0.28145627
   0.54250770  0.49295948  0.04593022
   0.45737318  0.28658549  0.51265578
   0.34754368  0.46440319  0.98678821
   0.15248335  0.81599230  0.56487899
   0.04264384  0.99326844  0.04053384
   0.34723149  0.31557718  0.07062007
   0.84721206  0.96452202  0.98261346
   0.95712243  0.78703062  0.50697919
   0.15269705  0.96457172  0.48171630
   0.65231297  0.46443179  0.48618601
   0.54265873  0.28667610  0.01229098
   0.95731917  0.99330748  0.54062070
   0.65279429  0.31572574  0.56964705
   0.45733244  0.49297172  0.54597587
   0.04256326  0.78700402  0.00688038
   0.84730591  0.81596729  0.06582109
   0.92750111  0.93016317  0.18192267
   0.96300264  0.93987604  0.35389540
   0.92737278  0.85039065  0.86485501
   0.57234845  0.42981649  0.68715318
   0.53693334  0.34019270  0.19851248
   0.03693623  0.84061586  0.19257460
   0.53693633  0.43945078  0.85965217
   0.57245168  0.35000054  0.37021970
   0.46285324  0.43942046  0.35986863
   0.07239137  0.85038311  0.36452001
   0.03693145  0.93986127  0.85371075
   0.46305731  0.34013357  0.69876075
   0.96281241  0.84063938  0.69268203
   0.07242850  0.93017436  0.68153569
   0.42753676  0.34990414  0.87072115
   0.42744638  0.42977751  0.18753262
   0.84445344  0.03644194  0.26313703
   0.84447737  0.74381653  0.78665348
   0.65499968  0.53644079  0.76610377
   0.65555462  0.24364235  0.29017785
   0.15524683  0.74379399  0.28605691
   0.34487360  0.53644349  0.26642656
   0.15547388  0.03647219  0.76255817
   0.34448346  0.24352768  0.79094198
   0.80491693  0.99571690  0.61533848
   0.88166940  0.07683715  0.90724934
   0.88187147  0.70366802  0.14249872
   0.61780063  0.57656519  0.40996845
   0.61857984  0.20332969  0.64657375
   0.19494320  0.78418972  0.93358002
   0.69453581  0.49599431  0.11845869
   0.69498607  0.28432082  0.93778393
   0.30524635  0.49608119  0.61904383
   0.11778127  0.70365575  0.64209830
   0.11824524  0.07703404  0.40715087
   0.38151778  0.20307074  0.14683161
   0.80503193  0.78418908  0.43403238
   0.19510577  0.99556415  0.11411138
   0.30508346  0.28439531  0.43906152
   0.38223569  0.57652438  0.91022203
 
 position of ions in cartesian coordinates  (Angst):
  18.11591264 27.14071728  4.55207446
  19.30339334 27.79994583  6.32876228
  18.11752269 23.64327844  8.83864846
  12.75901405 13.50628604  5.63395078
  11.57733552  8.55056685  2.08347167
   1.28223019 22.58596699  4.02090093
  11.57586366 14.16298068  7.41463566
  12.76547888  9.21409058  3.85819673
   9.01098368 13.76716578  4.38309983
   2.46796825 23.24821111  5.79767142
   1.28558666 28.19706946  9.35280851
   9.01226946  8.94453614  5.11697900
  19.30119131 22.98123697  7.06015231
   2.47158258 27.53848783  7.57488207
   7.82554983  9.60703168  6.89307158
   7.82673610 13.11059440  2.60314119
  16.58356493  1.28991473  2.91049058
  17.45607904  2.23235370  0.74865485
  17.45939743 20.49278377  8.71101567
  13.41544528 16.65584001  5.76556252
  13.42907129  6.06370183  3.72384038
   4.00209043 21.03052076  3.50665965
  14.28989648 15.72222760  7.93059009
  14.29846193  7.00382379  1.55947461
   6.29706598 15.32856362  4.89832629
   3.12529853 20.09780184  5.67163379
   3.13098236  2.63245163  3.77538486
   7.16208401  6.45563100  6.75584626
  16.58383606 21.42612700  6.54606027
   4.00571307  1.68453046  5.93369959
   6.29078277  7.40116589  4.59427105
   7.17190370 16.25988672  2.73234576
  15.76741002  2.51319326  3.08716749
  16.65357973  3.45489433  0.98787075
  16.65241090 19.27099947  8.48090691
  14.22014913 17.87824683  5.99814368
  14.23223760  4.84134195  3.48476421
   4.82211089 19.80768356  3.33963579
  15.10871766 16.94514985  8.10039072
  15.11738754  5.78197587  1.38419453
   5.47787370 16.55149632  5.06591799
   3.93324987 18.87663530  5.44283800
   3.93411390  3.85414128  4.01671874
   6.35649306  5.23502968  6.51592248
  15.76311900 20.20401174  6.37880484
   4.82029699  2.90843351  6.11412007
   5.47121833  6.18014342  4.41691641
   6.36588502 17.48192660  2.96225460
  14.94196737  2.63398725  4.19892478
  16.70955851  5.29267777  6.13780106
  16.70329146 17.43720685  3.33583085
  14.16666858 18.92000279  5.07929991
  14.17812886  3.79451981  4.39804649
   5.65171889 20.47273813  8.29375026
  15.93498676 16.27802524  3.14548698
  15.94463176  6.45247984  6.33591619
   4.64933365 16.67715510  6.17482814
   3.88021677 17.83598840  6.36322970
   3.88059076  4.90184204  3.10462693
   6.40607980  3.39572536  1.36456992
  14.93468360 20.07919154  5.26978522
   5.64158703  2.23602833  1.16341849
   4.64597651  6.06103322  3.30459111
   6.42010633 19.31341665  8.10485355
  18.21276166 28.14211262  5.52542921
  18.21376741 22.63902896  7.86826740
  12.66156549 14.50900367  6.60608321
  12.66832456  8.21026965  2.88739439
   2.37050672 22.24351611  4.82779187
   7.92512271 14.11356076  3.57485735
   2.37523972 28.53988835  8.54834663
   7.92257620  8.60343990  5.92226079
  15.83184620  3.55928419  2.13602834
  15.82650766 19.16309337  7.33597313
  15.04484684 17.98656586  7.14385285
  15.05412938  4.73689673  2.33654538
   4.75923974 18.76796911  4.29806755
   5.54131371 17.59153931  4.10783293
   4.75606193  3.95634871  5.16496198
   5.53443215  5.13324622  5.36746026
  20.09256760 24.99569507  3.65822166
   0.49304667 25.39382592  6.68426027
  10.78542720 11.35633092  4.74888299
   9.79975144 10.95993229  1.71821683
   7.04723488  3.50274800  2.23948710
  15.96640043 15.45796703  3.86273516
  15.97429385  7.27479120  5.62123477
  14.91060387  1.81017404  4.91187187
  14.90457506 20.89846266  4.55162526
  13.52256074 18.80834613  4.20718655
   3.23503712 17.94814513  7.23455301
   3.23882446  4.79436573  2.23020282
  17.34830396 17.54830146  4.20744136
   4.61640316  6.88436802  2.59111572
   4.61930187 15.85817912  6.89342661
   5.68037061 21.29027606  7.57354487
   7.06295221 19.19996887  7.23202050
  13.53569621  3.90307835  5.27185068
  17.35117564  5.18374462  5.26346336
   5.67160151  1.41179653  1.87580127
  11.16882312 13.86712006  2.22688018
   9.41723397  8.44625056  4.24234255
   7.15734684 13.81114080  7.81820242
   3.14069992 23.34251182  6.64550909
   0.87821310 27.90166391  4.16455260
   7.14869246  8.90992857  1.67551450
  17.44411784 27.83954713  9.76920821
  19.70566643 22.48262303  6.18552912
   3.14493109 27.44558674  6.72736965
  13.43043458 13.41505258  4.78474319
  11.17180880  8.05247875  1.20910162
  19.70984026 28.29708260  7.20329804
  13.44051255  9.30865971  4.70419691
   9.41651812 14.26352478  5.25859225
   0.87643057 22.08754374  3.14676104
  17.44382118 22.94545170  3.62380802
  19.09510251 26.24140065  4.77887951
  19.82638707 26.65002580  5.86026166
  19.09408122 24.54381226  8.60541505
  11.78467901 12.60305535  5.86629788
  11.05439776  9.70152631  2.54941874
   0.76104322 23.73884597  4.48425716
  11.05606475 13.01001801  6.95008758
  11.78602766 10.11260584  3.62956559
   9.52971756 12.61359545  3.91882991
   1.49137271 24.14897516  5.56568784
   0.76255035 27.04697922  8.88485448
   9.53471051 10.09606875  5.58215339
  19.82326242 24.13382554  7.52314092
   1.49291364 26.63879662  7.80282207
   8.80386286 10.50642887  6.66321403
   8.80038115 12.20664459  2.83552139
  17.38540820  1.22935030  1.74504420
  17.38730316 21.49173057  7.71021610
  13.48643183 15.65713852  6.76623540
  13.49665465  7.06483190  2.72516764
   3.19690832 21.09597208  4.66995055
   7.10066604 15.26214486  3.73417630
   3.20257761  1.62683471  4.76900767
   7.09383051  7.45864441  5.75922711
  16.57251376 28.42411500  7.66486747
  18.15312585  2.87268919  5.81049320
  18.15558318 19.85514806  3.64598121
  12.71976945 16.50106639  4.76470582
  12.73630039  6.21595953  4.72703929
   4.01569851 22.74202160  8.75610101
  14.29880151 14.00942804  2.67967429
  14.30999111  8.71888112  6.81293483
   6.28569643 14.40889268  5.71292113
   2.42644965 20.25171386  6.67035734
   2.43530788  2.48361305  2.77361829
   7.85470395  5.81344351  1.69404225
  16.57440255 22.34540753  5.73096036
   4.01712483 28.02406294  4.62079518
   6.28186745  8.32679890  3.78641600
   7.87139135 16.89641341  7.79646501
 


--------------------------------------------------------------------------------------------------------


 k-point  1 :   0.0000 0.0000 0.0000  plane waves:  114705
 k-point  2 :   0.5000-0.0000 0.0000  plane waves:  114826
 k-point  3 :   0.0000-0.0000 0.2500  plane waves:  114735
 k-point  4 :   0.5000-0.0000 0.2500  plane waves:  114750
 k-point  5 :   0.0000-0.0000 0.5000  plane waves:  114766
 k-point  6 :   0.5000 0.0000 0.5000  plane waves:  114832

 maximum and minimum number of plane-waves per node :     28822    28565

 maximum number of plane-waves:    114832
 maximum index in each direction: 
   IXMAX=   41   IYMAX=   56   IZMAX=   12
   IXMIN=  -41   IYMIN=  -56   IZMIN=  -12


 real space projection operators:
  total allocation   :      13409.50 KBytes
  max/ min on nodes  :       3395.80       3309.48


 parallel 3D FFT for wavefunctions:
    minimum data exchange during FFTs selected (reduces bandwidth)
 parallel 3D FFT for charge:
    minimum data exchange during FFTs selected (reduces bandwidth)


 total amount of memory used by VASP MPI-rank0   138971. kBytes
=======================================================================

   base      :      30000. kBytes
   nonlr-proj:       6812. kBytes
   fftplans  :       9047. kBytes
   grid      :      24733. kBytes
   one-center:       1213. kBytes
   wavefun   :      67166. kBytes
 
     INWAV:  cpu time    0.0002: real time    0.0002
 Broyden mixing: mesh for mixing (old mesh)
   NGX = 83   NGY =113   NGZ = 25
  (NGX  =252   NGY  =360   NGZ  = 80)
  gives a total of 234475 points

 initial charge density was supplied:
 charge density of overlapping atoms calculated
 number of electron     604.0000000 magnetization      -0.0000000
 keeping initial charge density in first step


--------------------------------------------------------------------------------------------------------


 Maximum index for non-local projection operator          714
 Maximum index for augmentation-charges          536 (set IRDMAX)


--------------------------------------------------------------------------------------------------------


 First call to EWALD:  gamma=   0.117
 Maximum number of real-space cells 2x 2x 6
 Maximum number of reciprocal cells 4x 5x 1

    FEWALD:  cpu time    0.0158: real time    0.0160


--------------------------------------- Iteration      1(   1)  ---------------------------------------


    POTLOK:  cpu time    0.3467: real time    0.4124
    SETDIJ:  cpu time    0.0702: real time    0.0703
     EDDAV:  cpu time   32.8614: real time   33.0387
       DOS:  cpu time    0.0152: real time    0.0158
    --------------------------------------------
      LOOP:  cpu time   33.2937: real time   33.5374

 eigenvalue-minimisations  :  9216
 total energy-change (2. order) : 0.5394180E+04  (-0.2779124E+05)
 number of electron     604.0000000 magnetization      -0.0000000
 augmentation part      604.0000000 magnetization      -0.0000000

 Free energy of the ion-electron system (eV)
  ---------------------------------------------------
  alpha Z        PSCENC =       491.29883726
  Ewald energy   TEWEN  =     37118.72193626
  -Hartree energ DENC   =    -61248.06055176
  -exchange      EXHF   =         0.00000000
  -V(xc)+E(xc)   XCENC  =      2117.00928995
  PAW double counting   =     22087.95224925   -22402.63741193
  entropy T*S    EENTRO =        -0.04686923
  eigenvalues    EBANDS =     -1461.86764109
  atomic energy  EATOM  =     28691.81066055
  Solvation  Ediel_sol  =         0.00000000
  ---------------------------------------------------
  free energy    TOTEN  =      5394.18049927 eV

  energy without entropy =     5394.22736850  energy(sigma->0) =     5394.20393388


--------------------------------------------------------------------------------------------------------




--------------------------------------- Iteration      1(   2)  ---------------------------------------


     EDDAV:  cpu time   44.5196: real time   44.5815
       DOS:  cpu time    0.0033: real time    0.0033
    --------------------------------------------
      LOOP:  cpu time   44.5231: real time   44.5850

 eigenvalue-minimisations  : 12992
 total energy-change (2. order) :-0.5746866E+04  (-0.5523110E+04)
 number of electron     604.0000000 magnetization      -0.0000000
 augmentation part      604.0000000 magnetization      -0.0000000

 Free energy of the ion-electron system (eV)
  ---------------------------------------------------
  alpha Z        PSCENC =       491.29883726
  Ewald energy   TEWEN  =     37118.72193626
  -Hartree energ DENC   =    -61248.06055176
  -exchange      EXHF   =         0.00000000
  -V(xc)+E(xc)   XCENC  =      2117.00928995
  PAW double counting   =     22087.95224925   -22402.63741193
  entropy T*S    EENTRO =        -0.00000000
  eigenvalues    EBANDS =     -7208.78082516
  atomic energy  EATOM  =     28691.81066055
  Solvation  Ediel_sol  =         0.00000000
  ---------------------------------------------------
  free energy    TOTEN  =      -352.68581558 eV

  energy without entropy =     -352.68581558  energy(sigma->0) =     -352.68581558


--------------------------------------------------------------------------------------------------------




--------------------------------------- Iteration      1(   3)  ---------------------------------------


     EDDAV:  cpu time   38.7910: real time   38.8375
       DOS:  cpu time    0.0051: real time    0.0051
    --------------------------------------------
      LOOP:  cpu time   38.7958: real time   38.8424

 eigenvalue-minimisations  : 10912
 total energy-change (2. order) :-0.9107688E+03  (-0.9036913E+03)
 number of electron     604.0000000 magnetization      -0.0000000
 augmentation part      604.0000000 magnetization      -0.0000000

 Free energy of the ion-electron system (eV)
  ---------------------------------------------------
  alpha Z        PSCENC =       491.29883726
  Ewald energy   TEWEN  =     37118.72193626
  -Hartree energ DENC   =    -61248.06055176
  -exchange      EXHF   =         0.00000000
  -V(xc)+E(xc)   XCENC  =      2117.00928995
  PAW double counting   =     22087.95224925   -22402.63741193
  entropy T*S    EENTRO =        -0.06792684
  eigenvalues    EBANDS =     -8119.48171681
  atomic energy  EATOM  =     28691.81066055
  Solvation  Ediel_sol  =         0.00000000
  ---------------------------------------------------
  free energy    TOTEN  =     -1263.45463407 eV

  energy without entropy =    -1263.38670723  energy(sigma->0) =    -1263.42067065


--------------------------------------------------------------------------------------------------------




--------------------------------------- Iteration      1(   4)  ---------------------------------------


     EDDAV:  cpu time   42.3346: real time   42.3859
       DOS:  cpu time    0.0054: real time    0.0054
    --------------------------------------------
      LOOP:  cpu time   42.3400: real time   42.3914

 eigenvalue-minimisations  : 12192
 total energy-change (2. order) :-0.3174100E+02  (-0.3152232E+02)
 number of electron     604.0000000 magnetization      -0.0000000
 augmentation part      604.0000000 magnetization      -0.0000000

 Free energy of the ion-electron system (eV)
  ---------------------------------------------------
  alpha Z        PSCENC =       491.29883726
  Ewald energy   TEWEN  =     37118.72193626
  -Hartree energ DENC   =    -61248.06055176
  -exchange      EXHF   =         0.00000000
  -V(xc)+E(xc)   XCENC  =      2117.00928995
  PAW double counting   =     22087.95224925   -22402.63741193
  entropy T*S    EENTRO =        -0.07685090
  eigenvalues    EBANDS =     -8151.21378800
  atomic energy  EATOM  =     28691.81066055
  Solvation  Ediel_sol  =         0.00000000
  ---------------------------------------------------
  free energy    TOTEN  =     -1295.19562932 eV

  energy without entropy =    -1295.11877841  energy(sigma->0) =    -1295.15720387


--------------------------------------------------------------------------------------------------------




--------------------------------------- Iteration      1(   5)  ---------------------------------------


     EDDAV:  cpu time   46.0010: real time   46.0577
       DOS:  cpu time    0.0050: real time    0.0050
    CHARGE:  cpu time    1.6612: real time    1.6677
    MIXING:  cpu time    0.0146: real time    0.0164
    --------------------------------------------
      LOOP:  cpu time   47.6819: real time   47.7469

 eigenvalue-minimisations  : 13664
 total energy-change (2. order) :-0.9930348E+00  (-0.9913030E+00)
 number of electron     603.9999910 magnetization       0.0002091
 augmentation part       37.2715880 magnetization      -0.0033851

 Broyden mixing:
  rms(total) = 0.85021E+01    rms(broyden)= 0.85016E+01
  rms(prec ) = 0.91914E+01
  weight for this iteration     100.00

 Free energy of the ion-electron system (eV)
  ---------------------------------------------------
  alpha Z        PSCENC =       491.29883726
  Ewald energy   TEWEN  =     37118.72193626
  -Hartree energ DENC   =    -61248.06055176
  -exchange      EXHF   =         0.00000000
  -V(xc)+E(xc)   XCENC  =      2117.00928995
  PAW double counting   =     22087.95224925   -22402.63741193
  entropy T*S    EENTRO =        -0.07666277
  eigenvalues    EBANDS =     -8152.20701096
  atomic energy  EATOM  =     28691.81066055
  Solvation  Ediel_sol  =         0.00000000
  ---------------------------------------------------
  free energy    TOTEN  =     -1296.18866414 eV

  energy without entropy =    -1296.11200138  energy(sigma->0) =    -1296.15033276


--------------------------------------------------------------------------------------------------------




--------------------------------------- Iteration      1(   6)  ---------------------------------------


    POTLOK:  cpu time    0.3027: real time    0.3035
    SETDIJ:  cpu time    0.0693: real time    0.0693
     EDDAV:  cpu time   47.9661: real time   48.0224
       DOS:  cpu time    0.0056: real time    0.0056
    CHARGE:  cpu time    1.6543: real time    1.6582
    MIXING:  cpu time    0.0122: real time    0.0211
    --------------------------------------------
      LOOP:  cpu time   50.0101: real time   50.0799

 eigenvalue-minimisations  : 14368
 total energy-change (2. order) :-0.1944209E+03  (-0.2348974E+03)
 number of electron     603.9999928 magnetization       0.0003213
 augmentation part       56.5649591 magnetization      -0.0096891

 Broyden mixing:
  rms(total) = 0.21703E+02    rms(broyden)= 0.21702E+02
  rms(prec ) = 0.22008E+02
  weight for this iteration     100.00

 eigenvalues of (default mixing * dielectric matrix)
  average eigenvalue GAMMA=   0.0967
  0.0967

 Free energy of the ion-electron system (eV)
  ---------------------------------------------------
  alpha Z        PSCENC =       491.29883726
  Ewald energy   TEWEN  =     37118.72193626
  -Hartree energ DENC   =    -61558.82842468
  -exchange      EXHF   =         0.00000000
  -V(xc)+E(xc)   XCENC  =      2154.20949239
  PAW double counting   =     32866.60484961   -33094.56712737
  entropy T*S    EENTRO =        -0.10811632
  eigenvalues    EBANDS =     -8159.75167345
  atomic energy  EATOM  =     28691.81066055
  Solvation  Ediel_sol  =         0.00000000
  ---------------------------------------------------
  free energy    TOTEN  =     -1490.60956575 eV

  energy without entropy =    -1490.50144943  energy(sigma->0) =    -1490.55550759


--------------------------------------------------------------------------------------------------------




--------------------------------------- Iteration      1(   7)  ---------------------------------------


    POTLOK:  cpu time    0.3020: real time    0.3020
    SETDIJ:  cpu time    0.0660: real time    0.0669
     EDDAV:  cpu time   36.7463: real time   36.7947
       DOS:  cpu time    0.0052: real time    0.0053
    CHARGE:  cpu time    1.6678: real time    1.6737
    MIXING:  cpu time    0.0086: real time    0.0131
    --------------------------------------------
      LOOP:  cpu time   38.7960: real time   38.8557

 eigenvalue-minimisations  : 10528
 total energy-change (2. order) : 0.9021461E+02  (-0.1991283E+02)
 number of electron     603.9999932 magnetization       0.0026892
 augmentation part       54.9314884 magnetization      -0.0207134

 Broyden mixing:
  rms(total) = 0.13936E+02    rms(broyden)= 0.13936E+02
  rms(prec ) = 0.14353E+02
  weight for this iteration     100.00

 eigenvalues of (default mixing * dielectric matrix)
  average eigenvalue GAMMA=   0.4550
  0.4550  0.4550

 Free energy of the ion-electron system (eV)
  ---------------------------------------------------
  alpha Z        PSCENC =       491.29883726
  Ewald energy   TEWEN  =     37118.72193626
  -Hartree energ DENC   =    -61707.08016471
  -exchange      EXHF   =         0.00000000
  -V(xc)+E(xc)   XCENC  =      2156.21360729
  PAW double counting   =     34347.35475448   -34603.79919966
  entropy T*S    EENTRO =        -0.10927682
  eigenvalues    EBANDS =     -7894.80610560
  atomic energy  EATOM  =     28691.81066055
  Solvation  Ediel_sol  =         0.00000000
  ---------------------------------------------------
  free energy    TOTEN  =     -1400.39495096 eV

  energy without entropy =    -1400.28567414  energy(sigma->0) =    -1400.34031255


--------------------------------------------------------------------------------------------------------




--------------------------------------- Iteration      1(   8)  ---------------------------------------


    POTLOK:  cpu time    0.3670: real time    0.3679
    SETDIJ:  cpu time    0.0670: real time    0.0670
     EDDAV:  cpu time   44.4310: real time   44.4830
       DOS:  cpu time    0.0088: real time    0.0088
    CHARGE:  cpu time    1.6434: real time    1.6494
    MIXING:  cpu time    0.0088: real time    0.0112
    --------------------------------------------
      LOOP:  cpu time   46.5260: real time   46.5874

 eigenvalue-minimisations  : 12928
 total energy-change (2. order) : 0.2406990E+03  (-0.2347526E+02)
 number of electron     603.9999914 magnetization      -0.0063848
 augmentation part       45.9142571 magnetization       0.0378668

 Broyden mixing:
  rms(total) = 0.30074E+01    rms(broyden)= 0.30071E+01
  rms(prec ) = 0.30649E+01
  weight for this iteration     100.00

[...]
                                                                                                                                                                                                                                                                                                                                                                                                                                                                                                                                                                                                                                                                                                                                                                                                                                                                                                                                                                                                                                                                                                                                                                                                                                                                                                                                                                                                                                                                                                                                                                                                                                                                                                                                                                                                                                                                                                                                                                                                                                                                                                                                                                                                                                                                                                                                                                                                                                                                                                                                                                                                                                                                                                                                                                                                                                                                                                                                                                                                                                                                                                                                                                                                                                                                                                                                                                                                                                                                                                                                                                                                                                                                                                                                                                                                                                                                                                                                                                                                                                                                                                                                                                                                                                                                                                                                                                                                                                                                                                                                                                                                                                                                                                                                                                                                                                                                                                                                                                                                                                                                                                                                                                                                                                                                                                                                                                                                                                                                                                                                                                                                                                                                                                                                                                                                                                                                                                                                                                                                                                                                                                                                                                                                                                                                                                                                                                                                                                                                                                                                                                                                                                                                                                                                                                                                                                                                                                                                                                                                                                                                                                                                                                                                                                                                                                                                                                                                                                                                                                                                                                                                                                                                                                                                                                                                                                                                                                                                                                                                                                                                                                                                                                                                                                                                                                                                                                                                                                                                                                                                                                                                                                                                                                                                                                                                                                                                                                                                                                                                                                                                                                                                                                                                                                                                                                                                                                                                                                                                                                                                                                                                                                                                                                                                                                                                                                                                                                                                                                                                                                                                                                                                                                                                                                                                                                                                                                                                                                                                                                                                                                                                                                                                                                                                                                                                                                                                                                                                                                                                                                                                                                                                                                                                                                                                                                                                                                                                                                                                                                                                                                                                                                                                                                                                                                                                                                                                                                                                                                                                                                                                                                                                                                                                                                                                                                                                                                                                                                                                                                                                                                                                                                                                                                                                                                                                                                                                                                                                                                                                                                                                                                                                                                                                                                                                                                                                                                                                                                                                                                                                                                                                                                                                                                                                                                                                                                                                                                                                                                                                                                                                                                                                                                                                                                                                                                                                                                                                                                                                                                                                                                                                                                                                                                                                                                                                                                                                                                                                                                                                                                                                                                                                                                                                                                                                                                                                                                                                                                                                                                                                                                                                                                                                                                                                                                                                                                                                                                                                                                                                                                                                                                                                                                                                                                                                                                                                                                                                                                                                                                                                                                                                                                                                                                                                                                                                                                                                                                                                                                                                                                                                                                                                                                                                                                                                                                                                                                                                                                                                                                                                                                                                                                                                                                                                                                                                                                                                                                                                                                                                                                                                                                                                                                                                                                                                                                                                                                                                                                                                                                                                                                                                                                                                                                                                                                                                                                                                                                                                                                                                                                                                                                                                                                                                                                                                                                                                                                                                                                                                                                                                                                                                                                                                                                                                                                                                                                                                                                                                                                                                                                                                                                                                                                                                                                                                                                                                                                                                                                                                                                                                                                                                                                                                                                                                                                                                                                