       N       E                     dE             d eps       ncg     rms          rms(c)
RMM:   1     0.604385182905E+04    0.60439E+04   -0.27071E+05  2800   0.140E+03
RMM:   2     0.207353389951E+04   -0.39703E+04   -0.66828E+04  2800   0.319E+02
RMM:   3     0.365821335890E+02   -0.20370E+04   -0.23692E+04  2800   0.177E+02
RMM:   4    -0.806394876160E+03   -0.84298E+03   -0.79745E+03  2800   0.130E+02
RMM:   5    -0.108823996347E+04   -0.28185E+03   -0.25050E+03  2800   0.735E+01
RMM:   6    -0.118083299049E+04   -0.92593E+02   -0.81968E+02  2800   0.460E+01
RMM:   7    -0.121380792871E+04   -0.32975E+02   -0.29572E+02  2800   0.270E+01
RMM:   8    -0.122599872528E+04   -0.12191E+02   -0.10847E+02  2800   0.186E+01
RMM:   9    -0.123452148832E+04   -0.85228E+01   -0.80207E+01  7366   0.110E+01
RMM:  10    -0.123471582016E+04   -0.19433E+00   -0.26684E+00  6920   0.207E+00
RMM:  11    -0.123473819346E+04   -0.22373E-01   -0.21755E-01  7214   0.567E-01
RMM:  12    -0.123473884975E+04   -0.65629E-03   -0.92713E-03  7234   0.104E-01    0.575E+01
RMM:  13    -0.116443742654E+04    0.70301E+02   -0.15364E+02  5600   0.162E+01    0.320E+01
RMM:  14    -0.115076374616E+04    0.13674E+02   -0.41395E+01  5600   0.841E+00    0.149E+01
RMM:  15    -0.114972106369E+04    0.10427E+01   -0.97153E+00  5600   0.440E+00    0.497E+00
RMM:  16    -0.114961396852E+04    0.10710E+00   -0.69310E-01  5704   0.140E+00    0.134E+00
RMM:  17    -0.114962708268E+04   -0.13114E-01   -0.15213E-01  5658   0.659E-01    0.416E-01
RMM:  18    -0.114962920313E+04   -0.21204E-02   -0.16941E-02  5640   0.217E-01    0.201E-01
RMM:  19    -0.114963184836E+04   -0.26452E-02   -0.53701E-03  5696   0.105E-01    0.926E-02
RMM:  20    -0.114963185543E+04   -0.70725E-05   -0.16694E-03  5613   0.604E-02    0.585E-02
RMM:  21    -0.114963162138E+04    0.23405E-03   -0.55835E-04  5600   0.371E-02    0.189E-02
RMM:  22    -0.114963155319E+04    0.68191E-04   -0.11355E-04  5635   0.136E-02    0.134E-02
RMM:  23    -0.114963151840E+04    0.34792E-04   -0.62295E-05  5579   0.104E-02    0.567E-03
RMM:  24    -0.114963151963E+04   -0.12248E-05   -0.73559E-06  4531   0.351E-03    0.351E-03
RMM:  25    -0.114963151969E+04   -0.61787E-07   -0.26438E-06  3709   0.228E-03
   1 F= -.11635199E+04 E0= -.11635199E+04  d E =-.116352E+04
