 vasp.6.0.8 29Jun18 (build Mar 14 2019 11:44:20) complex                        
  
 executed on             LinuxIFC date 2021.01.06  20:05:44
 running   64 mpi-ranks, with    1 threads/rank
 distrk:  each k-point on   64 cores,    1 groups
 distr:  one band on NCORES_PER_BAND=   4 cores,   16 groups


--------------------------------------------------------------------------------------------------------


 INCAR:
 POTCAR:    PAW_PBE C 08Apr2002                   
 POTCAR:    PAW_PBE Zn 06Sep2000                  
 POTCAR:    PAW_PBE H 15Jun2001                   
 POTCAR:    PAW_PBE N 08Apr2002                   
 POTCAR:    PAW_PBE O 08Apr2002                   
 POTCAR:    PAW_PBE C 08Apr2002                   
   VRHFIN =C: s2p2                                                              
   LEXCH  = PE                                                                  
   EATOM  =   147.1560 eV,   10.8157 Ry                                         
                                                                                
   TITEL  = PAW_PBE C 08Apr2002                                                 
   LULTRA =        F    use ultrasoft PP ?                                      
   IUNSCR =        1    unscreen: 0-lin 1-nonlin 2-no                           
   RPACOR =    1.200    partial core radius                                     
   POMASS =   12.011; ZVAL   =    4.000    mass and valenz                      
   RCORE  =    1.500    outmost cutoff radius                                   
   RWIGS  =    1.630; RWIGS  =    0.863    wigner-seitz radius (au A)           
   ENMAX  =  400.000; ENMIN  =  300.000 eV                                      
   ICORE  =        2    local potential                                         
   LCOR   =        T    correct aug charges                                     
   LPAW   =        T    paw PP                                                  
   EAUG   =  644.873                                                            
   DEXC   =    0.000                                                            
   RMAX   =    1.529    core radius for proj-oper                               
   RAUG   =    1.300    factor for augmentation sphere                          
   RDEP   =    1.501    radius for radial grids                                 
   RDEPT  =    1.300    core radius for aug-charge                              
                                                                                
   Atomic configuration                                                         
    4 entries                                                                   
     n  l   j            E        occ.                                          
     1  0  0.50      -273.3789   2.0000                                         
     2  0  0.50       -13.7508   2.0000                                         
     2  1  0.50        -5.2854   2.0000                                         
     3  2  1.50        -5.4423   0.0000                                         
   Description                                                                  
     l       E           TYP  RCUT    TYP  RCUT                                 
     0    -13.7508458     23  1.200                                             
     0     -8.2022199     23  1.200                                             
     1     -5.2854383     23  1.500                                             
     1     34.0145650     23  1.500                                             
     2     -5.4423304      7  1.500                                             
  local pseudopotential read in
  partial core-charges read in
  partial kinetic energy density read in
  atomic valenz-charges read in
  non local Contribution for L=           0  read in
    real space projection operators read in
  non local Contribution for L=           0  read in
    real space projection operators read in
  non local Contribution for L=           1  read in
    real space projection operators read in
  non local Contribution for L=           1  read in
    real space projection operators read in
    PAW grid and wavefunctions read in
 
   number of l-projection  operators is LMAX  =           4
   number of lm-projection operators is LMMAX =           8
 
 POTCAR:    PAW_PBE Zn 06Sep2000                  
   VRHFIN =Zn: d10 p2                                                           
   LEXCH  = PE                                                                  
   EATOM  =  1748.8345 eV,  128.5357 Ry                                         
                                                                                
   TITEL  = PAW_PBE Zn 06Sep2000                                                
   LULTRA =        F    use ultrasoft PP ?                                      
   IUNSCR =        1    unscreen: 0-lin 1-nonlin 2-no                           
   RPACOR =    2.000    partial core radius                                     
   POMASS =   65.390; ZVAL   =   12.000    mass and valenz                      
   RCORE  =    2.300    outmost cutoff radius                                   
   RWIGS  =    2.400; RWIGS  =    1.270    wigner-seitz radius (au A)           
   ENMAX  =  276.723; ENMIN  =  207.542 eV                                      
   RCLOC  =    1.828    cutoff for local pot                                    
   LCOR   =        T    correct aug charges                                     
   LPAW   =        T    paw PP                                                  
   EAUG   =  575.892                                                            
   DEXC   =    0.000                                                            
   RMAX   =    2.347    core radius for proj-oper                               
   RAUG   =    1.300    factor for augmentation sphere                          
   RDEP   =    2.324    radius for radial grids                                 
   RDEPT  =    1.788    core radius for aug-charge                              
                                                                                
   Atomic configuration                                                         
    9 entries                                                                   
     n  l   j            E        occ.                                          
     1  0  0.50     -9524.6913   2.0000                                         
     2  0  0.50     -1158.1882   2.0000                                         
     2  1  1.50     -1003.8506   6.0000                                         
     3  0  0.50      -129.2194   2.0000                                         
     3  1  1.50       -83.3890   6.0000                                         
     3  2  2.50       -10.1410  10.0000                                         
     4  0  0.50        -5.9785   2.0000                                         
     4  1  0.50        -4.0817   0.0000                                         
     4  3  2.50        -1.3606   0.0000                                         
   Description                                                                  
     l       E           TYP  RCUT    TYP  RCUT                                 
     2    -10.1410010     23  2.300                                             
     2    -11.5015836     23  2.300                                             
     0     -5.9785163     23  2.300                                             
     0      1.1858015     23  2.300                                             
     1     -2.7211652     23  2.300                                             
     1     13.2444212     23  2.300                                             
  local pseudopotential read in
  partial core-charges read in
  partial kinetic energy density read in
  atomic valenz-charges read in
  non local Contribution for L=           2  read in
    real space projection operators read in
  non local Contribution for L=           2  read in
    real space projection operators read in
  non local Contribution for L=           0  read in
    real space projection operators read in
  non local Contribution for L=           0  read in
    real space projection operators read in
  non local Contribution for L=           1  read in
    real space projection operators read in
  non local Contribution for L=           1  read in
    real space projection operators read in
    PAW grid and wavefunctions read in
 
   number of l-projection  operators is LMAX  =           6
   number of lm-projection operators is LMMAX =          18
 
 POTCAR:    PAW_PBE H 15Jun2001                   
   VRHFIN =H: ultrasoft test                                                    
   LEXCH  = PE                                                                  
   EATOM  =    12.4884 eV,    0.9179 Ry                                         
                                                                                
   TITEL  = PAW_PBE H 15Jun2001                                                 
   LULTRA =        F    use ultrasoft PP ?                                      
   IUNSCR =        0    unscreen: 0-lin 1-nonlin 2-no                           
   RPACOR =    0.000    partial core radius                                     
   POMASS =    1.000; ZVAL   =    1.000    mass and valenz                      
   RCORE  =    1.100    outmost cutoff radius                                   
   RWIGS  =    0.700; RWIGS  =    0.370    wigner-seitz radius (au A)           
   ENMAX  =  250.000; ENMIN  =  200.000 eV                                      
   RCLOC  =    0.701    cutoff for local pot                                    
   LCOR   =        T    correct aug charges                                     
   LPAW   =        T    paw PP                                                  
   EAUG   =  400.000                                                            
   RMAX   =    1.123    core radius for proj-oper                               
   RAUG   =    1.200    factor for augmentation sphere                          
   RDEP   =    1.112    radius for radial grids                                 
   RDEPT  =    0.926    core radius for aug-charge                              
                                                                                
   Atomic configuration                                                         
    2 entries                                                                   
     n  l   j            E        occ.                                          
     1  0  0.50        -6.4927   1.0000                                         
     2  1  0.50        -3.4015   0.0000                                         
   Description                                                                  
     l       E           TYP  RCUT    TYP  RCUT                                 
     0     -6.4927494     23  1.100                                             
     0      6.8029130     23  1.100                                             
     1     -4.0817478     23  1.100                                             
  local pseudopotential read in
  atomic valenz-charges read in
  non local Contribution for L=           0  read in
    real space projection operators read in
  non local Contribution for L=           0  read in
    real space projection operators read in
  non local Contribution for L=           1  read in
    real space projection operators read in
    PAW grid and wavefunctions read in
 
   number of l-projection  operators is LMAX  =           3
   number of lm-projection operators is LMMAX =           5
 
 POTCAR:    PAW_PBE N 08Apr2002                   
   VRHFIN =N: s2p3                                                              
   LEXCH  = PE                                                                  
   EATOM  =   264.5486 eV,   19.4438 Ry                                         
                                                                                
   TITEL  = PAW_PBE N 08Apr2002                                                 
   LULTRA =        F    use ultrasoft PP ?                                      
   IUNSCR =        1    unscreen: 0-lin 1-nonlin 2-no                           
   RPACOR =    1.200    partial core radius                                     
   POMASS =   14.001; ZVAL   =    5.000    mass and valenz                      
   RCORE  =    1.500    outmost cutoff radius                                   
   RWIGS  =    1.400; RWIGS  =    0.741    wigner-seitz radius (au A)           
   ENMAX  =  400.000; ENMIN  =  300.000 eV                                      
   ICORE  =        2    local potential                                         
   LCOR   =        T    correct aug charges                                     
   LPAW   =        T    paw PP                                                  
   EAUG   =  627.112                                                            
   DEXC   =    0.000                                                            
   RMAX   =    1.529    core radius for proj-oper                               
   RAUG   =    1.300    factor for augmentation sphere                          
   RDEP   =    1.514    radius for radial grids                                 
   RDEPT  =    1.338    core radius for aug-charge                              
                                                                                
   Atomic configuration                                                         
    4 entries                                                                   
     n  l   j            E        occ.                                          
     1  0  0.50      -384.7179   2.0000                                         
     2  0  0.50       -18.5828   2.0000                                         
     2  1  0.50        -7.0898   3.0000                                         
     3  2  1.50        -6.8029   0.0000                                         
   Description                                                                  
     l       E           TYP  RCUT    TYP  RCUT                                 
     0    -18.5828119     23  1.200                                             
     0    -13.5018863     23  1.200                                             
     1     -7.0897853     23  1.500                                             
     1      9.5240782     23  1.500                                             
     2     -6.8029130      7  1.500                                             
  local pseudopotential read in
  partial core-charges read in
  partial kinetic energy density read in
  atomic valenz-charges read in
  non local Contribution for L=           0  read in
    real space projection operators read in
  non local Contribution for L=           0  read in
    real space projection operators read in
  non local Contribution for L=           1  read in
    real space projection operators read in
  non local Contribution for L=           1  read in
    real space projection operators read in
    PAW grid and wavefunctions read in
 
   number of l-projection  operators is LMAX  =           4
   number of lm-projection operators is LMMAX =           8
 
 POTCAR:    PAW_PBE O 08Apr2002                   
   VRHFIN =O: s2p4                                                              
   LEXCH  = PE                                                                  
   EATOM  =   432.3788 eV,   31.7789 Ry                                         
                                                                                
   TITEL  = PAW_PBE O 08Apr2002                                                 
   LULTRA =        F    use ultrasoft PP ?                                      
   IUNSCR =        1    unscreen: 0-lin 1-nonlin 2-no                           
   RPACOR =    1.200    partial core radius                                     
   POMASS =   16.000; ZVAL   =    6.000    mass and valenz                      
   RCORE  =    1.520    outmost cutoff radius                                   
   RWIGS  =    1.550; RWIGS  =    0.820    wigner-seitz radius (au A)           
   ENMAX  =  400.000; ENMIN  =  300.000 eV                                      
   ICORE  =        2    local potential                                         
   LCOR   =        T    correct aug charges                                     
   LPAW   =        T    paw PP                                                  
   EAUG   =  605.392                                                            
   DEXC   =    0.000                                                            
   RMAX   =    1.553    core radius for proj-oper                               
   RAUG   =    1.300    factor for augmentation sphere                          
   RDEP   =    1.550    radius for radial grids                                 
   RDEPT  =    1.329    core radius for aug-charge                              
                                                                                
   Atomic configuration                                                         
    4 entries                                                                   
     n  l   j            E        occ.                                          
     1  0  0.50      -514.6923   2.0000                                         
     2  0  0.50       -23.9615   2.0000                                         
     2  1  0.50        -9.0305   4.0000                                         
     3  2  1.50        -9.5241   0.0000                                         
   Description                                                                  
     l       E           TYP  RCUT    TYP  RCUT                                 
     0    -23.9615318     23  1.200                                             
     0     -9.5240782     23  1.200                                             
     1     -9.0304911     23  1.520                                             
     1      8.1634956     23  1.520                                             
     2     -9.5240782      7  1.500                                             
  local pseudopotential read in
  partial core-charges read in
  partial kinetic energy density read in
  kinetic energy density of atom read in
  atomic valenz-charges read in
  non local Contribution for L=           0  read in
    real space projection operators read in
  non local Contribution for L=           0  read in
    real space projection operators read in
  non local Contribution for L=           1  read in
    real space projection operators read in
  non local Contribution for L=           1  read in
    real space projection operators read in
    PAW grid and wavefunctions read in
 
   number of l-projection  operators is LMAX  =           4
   number of lm-projection operators is LMMAX =           8
 
 Optimization of the real space projectors (new method)

 maximal supplied QI-value         = 25.13
 optimisation between [QCUT,QGAM] = [ 12.32, 24.88] = [ 42.47,173.37] Ry 
 Optimized for a Real-space Cutoff    1.06 Angstroem

   l    n(q)    QCUT    max X(q) W(low)/X(q) W(high)/X(q)  e(spline) 
   0      8    12.315   115.676    0.34E-03    0.18E-03    0.23E-06
   0      8    12.315    87.132    0.34E-03    0.18E-03    0.22E-06
   1      7    12.315     4.429    0.45E-03    0.12E-03    0.18E-06
   1      7    12.315     2.733    0.35E-03    0.97E-04    0.15E-06
 Optimization of the real space projectors (new method)

 maximal supplied QI-value         = 16.25
 optimisation between [QCUT,QGAM] = [ 12.51, 25.03] = [ 43.85,175.40] Ry 
 Optimized for a Real-space Cutoff    1.31 Angstroem

   l    n(q)    QCUT    max X(q) W(low)/X(q) W(high)/X(q)  e(spline) 
   2      9    12.514    46.356    0.36E-03    0.54E-03    0.48E-06
   2      9    12.514    41.843    0.37E-03    0.56E-03    0.49E-06
   0     10    12.514    48.958    0.13E-03    0.28E-03    0.23E-06
   0     10    12.514    32.776    0.12E-03    0.26E-03    0.22E-06
   1      9    12.514    17.787    0.44E-03    0.44E-04    0.36E-06
   1      9    12.514    14.435    0.39E-03    0.39E-04    0.32E-06
 Optimization of the real space projectors (new method)

 maximal supplied QI-value         = 34.20
 optimisation between [QCUT,QGAM] = [ 12.31, 24.97] = [ 42.46,174.58] Ry 
 Optimized for a Real-space Cutoff    1.00 Angstroem

   l    n(q)    QCUT    max X(q) W(low)/X(q) W(high)/X(q)  e(spline) 
   0      7    12.313    19.460    0.14E-03    0.42E-03    0.16E-06
   0      7    12.313    12.209    0.12E-03    0.40E-03    0.16E-06
   1      7    12.313     4.655    0.33E-03    0.59E-03    0.89E-07
 Optimization of the real space projectors (new method)

 maximal supplied QI-value         = 25.13
 optimisation between [QCUT,QGAM] = [ 12.32, 24.88] = [ 42.47,173.37] Ry 
 Optimized for a Real-space Cutoff    1.20 Angstroem

   l    n(q)    QCUT    max X(q) W(low)/X(q) W(high)/X(q)  e(spline) 
   0      9    12.315    79.467    0.14E-03    0.22E-04    0.37E-06
   0      9    12.315    66.151    0.14E-03    0.23E-04    0.36E-06
   1      8    12.315    22.077    0.30E-03    0.54E-03    0.45E-06
   1      8    12.315    15.894    0.30E-03    0.55E-03    0.45E-06
 Optimization of the real space projectors (new method)

 maximal supplied QI-value         = 24.76
 optimisation between [QCUT,QGAM] = [ 12.38, 25.00] = [ 42.90,175.06] Ry 
 Optimized for a Real-space Cutoff    1.13 Angstroem

   l    n(q)    QCUT    max X(q) W(low)/X(q) W(high)/X(q)  e(spline) 
   0      8    12.378    20.381    0.16E-03    0.54E-05    0.27E-06
   0      8    12.378    15.268    0.17E-03    0.61E-05    0.29E-06
   1      8    12.378     5.964    0.38E-03    0.23E-03    0.28E-06
   1      8    12.378     5.382    0.33E-03    0.20E-03    0.25E-06
  PAW_PBE C 08Apr2002                   :
 energy of atom  1       EATOM= -147.1560
 kinetic energy error for atom=    0.0057 (will be added to EATOM!!)
  PAW_PBE Zn 06Sep2000                  :
 energy of atom  2       EATOM=-1748.8345
 kinetic energy error for atom=    0.0020 (will be added to EATOM!!)
  PAW_PBE H 15Jun2001                   :
 energy of atom  3       EATOM=  -12.4884
 kinetic energy error for atom=    0.0004 (will be added to EATOM!!)
  PAW_PBE N 08Apr2002                   :
 energy of atom  4       EATOM= -264.5486
 kinetic energy error for atom=    0.0103 (will be added to EATOM!!)
  PAW_PBE O 08Apr2002                   :
 energy of atom  5       EATOM= -432.3788
 kinetic energy error for atom=    0.0168 (will be added to EATOM!!)
 
 
 POSCAR: Zn_H
  positions in direct lattice
  velocities in cartesian coordinates
 exchange correlation table for  LEXCH =        8
   RHO(1)=    0.500       N(1)  =     2000
   RHO(2)=  100.500       N(2)  =     4000
 


--------------------------------------------------------------------------------------------------------


 ion  position               nearest neighbor table
   1  0.896  0.957  0.156- 107 1.08 117 1.34  65 1.40
   2  0.758  0.952  0.428- 112 1.09 118 1.36  65 1.40
   3  0.896  0.799  0.892- 116 1.08 119 1.34  66 1.40
   4  0.604  0.457  0.654- 110 1.08 120 1.34  67 1.40
   5  0.741  0.304  0.117- 111 1.09 121 1.36  68 1.40
   6  0.238  0.804  0.119- 115 1.09 122 1.36  69 1.40
   7  0.742  0.452  0.927- 101 1.09 123 1.36  67 1.40
   8  0.603  0.299  0.390- 113 1.08 124 1.34  68 1.40
   9  0.262  0.452  0.427- 114 1.09 125 1.36  70 1.40
  10  0.101  0.799  0.392- 104 1.08 126 1.34  69 1.40
  11  0.238  0.952  0.928- 105 1.09 127 1.36  71 1.40
  12  0.262  0.304  0.617- 102 1.09 128 1.36  72 1.40
  13  0.759  0.804  0.618- 108 1.09 129 1.36  66 1.40
  14  0.100  0.957  0.655- 109 1.08 130 1.34  71 1.40
  15  0.399  0.299  0.890- 106 1.08 131 1.34  72 1.40
  16  0.399  0.457  0.154- 103 1.08 132 1.34  70 1.40
  17  0.687  0.032  0.138- 141 1.23 133 1.42  33 1.48
  18  0.827  0.051  0.467- 142 1.23 133 1.41  34 1.48
  19  0.829  0.705  0.579- 143 1.23 134 1.41  35 1.48
  20  0.673  0.551  0.966- 144 1.23 135 1.41  36 1.48
  21  0.671  0.205  0.078- 145 1.23 136 1.41  37 1.48
  22  0.310  0.724  0.408- 146 1.23 137 1.42  38 1.48
  23  0.813  0.532  0.637- 147 1.23 135 1.42  39 1.48
  24  0.812  0.224  0.407- 148 1.23 136 1.42  40 1.48
  25  0.190  0.532  0.136- 149 1.23 138 1.42  41 1.48
  26  0.171  0.705  0.079- 150 1.23 137 1.41  42 1.48
  27  0.170  0.051  0.966- 151 1.23 139 1.41  43 1.48
  28  0.329  0.205  0.578- 152 1.23 140 1.41  44 1.48
  29  0.688  0.724  0.908- 153 1.23 134 1.42  45 1.48
  30  0.309  0.032  0.637- 154 1.23 139 1.42  46 1.48
  31  0.189  0.224  0.907- 155 1.23 140 1.42  47 1.48
  32  0.330  0.551  0.465- 156 1.23 138 1.41  48 1.48
  33  0.688  0.077  0.124-  49 1.39  73 1.41  17 1.48
  34  0.816  0.095  0.453-  50 1.39  73 1.41  18 1.48
  35  0.818  0.661  0.593-  51 1.39  74 1.41  19 1.48
  36  0.684  0.595  0.952-  52 1.39  75 1.41  20 1.48
  37  0.682  0.161  0.093-  53 1.39  76 1.41  21 1.48
  38  0.311  0.679  0.422-  54 1.39  77 1.41  22 1.48
  39  0.812  0.577  0.623-  55 1.39  75 1.41  23 1.48
  40  0.811  0.179  0.422-  56 1.39  76 1.41  24 1.48
  41  0.190  0.577  0.122-  57 1.39  78 1.41  25 1.48
  42  0.183  0.661  0.093-  58 1.39  77 1.41  26 1.48
  43  0.182  0.095  0.952-  59 1.39  79 1.41  27 1.48
  44  0.317  0.161  0.592-  60 1.39  80 1.41  28 1.48
  45  0.689  0.679  0.922-  61 1.39  74 1.41  29 1.48
  46  0.310  0.076  0.623-  62 1.39  79 1.41  30 1.48
  47  0.189  0.179  0.921-  63 1.39  80 1.41  31 1.48
  48  0.318  0.595  0.452-  64 1.39  78 1.41  32 1.48
  49  0.626  0.089  0.955-  88 1.09  33 1.39  53 1.41
  50  0.876  0.125  0.605-  99 1.09  34 1.39  56 1.40
  51  0.878  0.631  0.440-  93 1.09  35 1.39  55 1.41
  52  0.624  0.625  0.105-  90 1.09  36 1.39  61 1.40
  53  0.622  0.131  0.940-  98 1.09  37 1.39  49 1.41
  54  0.373  0.667  0.591-  96 1.09  38 1.39  64 1.40
  55  0.874  0.589  0.454-  86 1.09  39 1.39  51 1.41
  56  0.873  0.167  0.591-  87 1.09  40 1.39  50 1.40
  57  0.128  0.589  0.954-  95 1.09  41 1.39  58 1.41
  58  0.124  0.631  0.939-  91 1.09  42 1.39  57 1.41
  59  0.122  0.125  0.105-  92 1.09  43 1.39  63 1.40
  60  0.376  0.131  0.439-  85 1.09  44 1.39  62 1.41
  61  0.627  0.667  0.091-  89 1.09  45 1.39  52 1.40
  62  0.372  0.089  0.454- 100 1.09  46 1.39  60 1.41
  63  0.127  0.167  0.090-  94 1.09  47 1.39  59 1.40
  64  0.378  0.625  0.605-  97 1.09  48 1.39  54 1.40
  65  0.795  0.979  0.300-   1 1.40   2 1.40 133 1.42
  66  0.796  0.777  0.747-   3 1.40  13 1.40 134 1.42
  67  0.705  0.479  0.799-   4 1.40   7 1.40 135 1.42
  68  0.703  0.277  0.245-   8 1.40   5 1.40 136 1.42
  69  0.201  0.777  0.247-  10 1.40   6 1.40 137 1.42
  70  0.299  0.479  0.298-  16 1.40   9 1.40 138 1.42
  71  0.201  0.979  0.799-  14 1.40  11 1.40 139 1.42
  72  0.299  0.277  0.745-  15 1.40  12 1.40 140 1.42
  73  0.750  0.107  0.280-  33 1.41  34 1.41  76 1.42
  74  0.752  0.649  0.765-  45 1.41  35 1.41  75 1.42
  75  0.749  0.607  0.780-  39 1.41  36 1.41  74 1.42
  76  0.748  0.149  0.265-  40 1.41  37 1.41  73 1.42
  77  0.249  0.649  0.264-  38 1.41  42 1.41  78 1.42
  78  0.252  0.607  0.280-  41 1.41  48 1.41  77 1.42
  79  0.248  0.107  0.780-  46 1.41  43 1.41  80 1.42
  80  0.251  0.149  0.764-  47 1.41  44 1.41  79 1.42
  81  0.063  0.878  0.024- 122 1.99 127 1.99 117 2.02 119 2.02
  82  0.934  0.878  0.523- 118 1.99 129 1.99 130 2.02 126 2.02
  83  0.437  0.378  0.522- 128 1.99 125 1.99 124 2.02 120 2.02
  84  0.566  0.378  0.022- 123 1.99 121 1.99 132 2.02 131 2.02
  85  0.426  0.140  0.308-  60 1.09
  86  0.919  0.565  0.334-  55 1.09
  87  0.917  0.191  0.711-  56 1.09
  88  0.581  0.065  0.834-  49 1.09
  89  0.582  0.691  0.211-  61 1.09
  90  0.574  0.615  0.237-  52 1.09
  91  0.074  0.640  0.808-  58 1.09
  92  0.073  0.116  0.236-  59 1.09
  93  0.927  0.640  0.309-  51 1.09
  94  0.083  0.191  0.211-  63 1.09
  95  0.084  0.565  0.833-  57 1.09
  96  0.417  0.691  0.711-  54 1.09
  97  0.427  0.616  0.736-  64 1.09
  98  0.573  0.140  0.808-  53 1.09
  99  0.926  0.115  0.737-  50 1.09
 100  0.415  0.065  0.333-  62 1.09
 101  0.814  0.457  0.061-   7 1.09
 102  0.189  0.299  0.483-  12 1.09
 103  0.455  0.467  0.028-  16 1.08
 104  0.046  0.788  0.517-  10 1.08
 105  0.310  0.957  0.062-  11 1.09
 106  0.454  0.288  0.016-  15 1.08
 107  0.952  0.968  0.030-   1 1.08
 108  0.686  0.799  0.484-  13 1.09
 109  0.045  0.967  0.530-  14 1.08
 110  0.549  0.467  0.529-   4 1.08
 111  0.813  0.299  0.983-   5 1.09
 112  0.686  0.957  0.562-   2 1.09
 113  0.548  0.288  0.516-   8 1.08
 114  0.190  0.457  0.561-   9 1.09
 115  0.311  0.799  0.984-   6 1.09
 116  0.952  0.788  0.017-   3 1.08
 117  0.920  0.919  0.196-   1 1.34 118 1.37  81 2.02
 118  0.834  0.916  0.363-   2 1.36 117 1.37  82 1.99
 119  0.920  0.836  0.851-   3 1.34 129 1.37  81 2.02
 120  0.580  0.419  0.694-   4 1.34 123 1.37  83 2.02
 121  0.665  0.340  0.183-   5 1.36 124 1.37  84 1.99
 122  0.162  0.840  0.184-   6 1.36 126 1.37  81 1.99
 123  0.665  0.416  0.862-   7 1.36 120 1.37  84 1.99
 124  0.579  0.336  0.350-   8 1.34 121 1.37  83 2.02
 125  0.338  0.416  0.362-   9 1.36 132 1.37  83 1.99
 126  0.077  0.836  0.351-  10 1.34 122 1.37  82 2.02
 127  0.162  0.916  0.863-  11 1.36 130 1.37  81 1.99
 128  0.338  0.340  0.682-  12 1.36 131 1.37  83 1.99
 129  0.835  0.840  0.684-  13 1.36 119 1.37  82 1.99
 130  0.076  0.919  0.696-  14 1.34 127 1.37  82 2.02
 131  0.423  0.336  0.850-  15 1.34 128 1.37  84 2.02
 132  0.423  0.419  0.194-  16 1.34 125 1.37  84 2.02
 133  0.760  0.022  0.309-  18 1.41  17 1.42  65 1.42
 134  0.761  0.734  0.737-  19 1.41  29 1.42  66 1.42
 135  0.740  0.522  0.808-  20 1.41  23 1.42  67 1.42
 136  0.739  0.234  0.236-  21 1.41  24 1.42  68 1.42
 137  0.237  0.734  0.237-  26 1.41  22 1.42  69 1.42
 138  0.263  0.522  0.307-  32 1.41  25 1.42  70 1.42
 139  0.236  0.022  0.808-  27 1.41  30 1.42  71 1.42
 140  0.263  0.234  0.736-  28 1.41  31 1.42  72 1.42
 141  0.628  0.005  0.007-  17 1.23
 142  0.893  0.039  0.609-  18 1.23
 143  0.895  0.717  0.438-  19 1.23
 144  0.607  0.539  0.108-  20 1.23
 145  0.605  0.216  0.937-  21 1.23
 146  0.369  0.750  0.539-  22 1.23
 147  0.872  0.505  0.506-  23 1.23
 148  0.871  0.250  0.537-  24 1.23
 149  0.132  0.505  0.006-  25 1.23
 150  0.105  0.716  0.937-  26 1.23
 151  0.103  0.040  0.108-  27 1.23
 152  0.395  0.216  0.436-  28 1.23
 153  0.628  0.750  0.038-  29 1.23
 154  0.367  0.005  0.506-  30 1.23
 155  0.131  0.250  0.038-  31 1.23
 156  0.397  0.539  0.607-  32 1.23
 

IMPORTANT INFORMATION: All symmetrisations will be switched off!
NOSYMM: (Re-)initialisation of all symmetry stuff for point group C_1.


----------------------------------------------------------------------------------------

                                     Primitive cell                                     

  volume of cell :    1867.6110

  direct lattice vectors                    reciprocal lattice vectors
     8.515454526 -0.000904288 -0.001425589     0.117433542 -0.000006153 -0.000007020
     0.001524216 32.747597891 -3.205745591     0.000003766  0.030824897  0.002945133
     0.000370289 -0.645927133  6.760521845     0.000026549  0.014616737  0.149314115

  length of vectors
     8.515454693 32.904133095  6.791308977     0.117433542  0.030965273  0.150027846

  position of ions in fractional coordinates (direct lattice)
     0.896066659  0.957195706  0.155599093
     0.758083601  0.951999903  0.428137652
     0.896443984  0.798645955  0.891515991
     0.604006232  0.457096122  0.654231927
     0.740715720  0.303653282  0.117220837
     0.238261593  0.803889023  0.118577396
     0.741573469  0.451950317  0.927199384
     0.603126779  0.298565951  0.390257051
     0.261954408  0.452126256  0.427010730
     0.100848482  0.798680367  0.391551402
     0.237803641  0.952161063  0.928022977
     0.261523383  0.303762821  0.617185971
     0.758833100  0.803735389  0.618491951
     0.100122749  0.957195372  0.655002450
     0.399032900  0.298583728  0.890184040
     0.399261052  0.457150108  0.153716832
     0.687261161  0.032084987  0.137659539
     0.827091193  0.050629460  0.467084426
     0.828628575  0.705178758  0.579201493
     0.672870168  0.550516632  0.966334944
     0.671285931  0.205054897  0.078240206
     0.310454422  0.723775504  0.408309560
     0.812658302  0.532096340  0.636862640
     0.811690583  0.223566535  0.407325148
     0.190226961  0.532126536  0.136142359
     0.170702932  0.705230833  0.078853896
     0.169517175  0.050764920  0.966117950
     0.329231054  0.205080544  0.578027340
     0.687828053  0.723541766  0.907988152
     0.309132943  0.032060298  0.636614289
     0.189470089  0.223747094  0.907391648
     0.330211762  0.550697725  0.465432218
     0.687545144  0.076502705  0.123531800
     0.816252003  0.094914426  0.452579918
     0.817507361  0.660857205  0.593024672
     0.683699467  0.594823098  0.952215923
     0.682403193  0.160761589  0.092589946
     0.311041936  0.679324716  0.421917321
     0.812321402  0.576542591  0.623130626
     0.811212731  0.179157198  0.421590427
     0.189840265  0.576575841  0.122391021
     0.182825500  0.660911106  0.092571320
     0.181638232  0.095050276  0.951901079
     0.317093131  0.160781315  0.592148340
     0.688566448  0.679114624  0.921950682
     0.309777095  0.076491763  0.622596009
     0.188864668  0.179320721  0.921398201
     0.318128482  0.595009070  0.451659467
     0.625627696  0.088582199  0.954733609
     0.876300464  0.125103419  0.605485622
     0.877648911  0.630720435  0.439969146
     0.623589193  0.624956753  0.105282962
     0.622214411  0.130575092  0.939776953
     0.373089808  0.667238992  0.590646852
     0.874169912  0.588702725  0.454494293
     0.872943414  0.167090062  0.590531329
     0.127903370  0.588673163  0.953631125
     0.123541250  0.630690355  0.939216380
     0.122297267  0.125314891  0.104967846
     0.376340089  0.130513091  0.439025520
     0.626839982  0.666963331  0.090676337
     0.371786587  0.088513226  0.453702301
     0.126744542  0.167309779  0.090251686
     0.377520094  0.625220301  0.604955277
     0.795439423  0.979136778  0.300032120
     0.796272332  0.776622495  0.746700338
     0.704502080  0.479059967  0.798826268
     0.703272190  0.276543676  0.245442227
     0.201223957  0.776735480  0.246750320
     0.298991611  0.479182727  0.298340302
     0.200555030  0.979220140  0.799457744
     0.298643503  0.276625327  0.745400920
     0.750456673  0.106568749  0.280494718
     0.751584497  0.649108611  0.764821233
     0.749470726  0.606558476  0.780320351
     0.748315042  0.149094367  0.264595823
     0.248899969  0.649233721  0.264472461
     0.251998592  0.606675547  0.279797284
     0.247756126  0.106641554  0.779860523
     0.250969271  0.149177807  0.764176623
     0.062517379  0.877976481  0.023505002
     0.933826526  0.877944956  0.523320266
     0.437137239  0.377899764  0.522238050
     0.565731597  0.377889019  0.022366588
     0.426143520  0.140097667  0.307633437
     0.918604577  0.564821352  0.333951997
     0.917310230  0.191021008  0.710936588
     0.581112192  0.064653258  0.834431060
     0.582337989  0.690843258  0.211196222
     0.574175029  0.615261013  0.236597438
     0.073802730  0.640324580  0.807896464
     0.072510995  0.115725339  0.236358867
     0.927273185  0.640420101  0.308779501
     0.082948891  0.191298463  0.210776528
     0.084118862  0.564734087  0.832865047
     0.416868604  0.691182665  0.711404417
     0.427302155  0.615577536  0.736219685
     0.572527499  0.140216770  0.808468770
     0.925725711  0.115468066  0.736968178
     0.415449526  0.064534509  0.333049729
     0.813906011  0.456739502  0.061370137
     0.189140947  0.298980154  0.483059591
     0.454518587  0.467430531  0.028191638
     0.045643565  0.788317557  0.516886691
     0.310207312  0.957023387  0.062119922
     0.454263191  0.288239459  0.015566763
     0.951576296  0.967571240  0.030499995
     0.686478035  0.798907193  0.484359509
     0.044762052  0.967478198  0.529545619
     0.548709542  0.467447956  0.528934785
     0.813061396  0.298814984  0.983090442
     0.685583217  0.956778112  0.562122809
     0.547795996  0.288250683  0.515629280
     0.189733398  0.456987850  0.561260968
     0.310604947  0.799111314  0.984449162
     0.951829585  0.788345802  0.016912765
     0.920005962  0.919394568  0.195661334
     0.834438272  0.915771171  0.362998724
     0.920142873  0.836461526  0.851437787
     0.579886416  0.419310404  0.694429525
     0.664742123  0.339933865  0.182532805
     0.161844774  0.840098820  0.183835593
     0.665208788  0.415722263  0.862041577
     0.579430356  0.336380799  0.350176073
     0.338158537  0.415869534  0.362051322
     0.076606910  0.836474465  0.351453926
     0.161515447  0.915907093  0.863178380
     0.337893488  0.339987182  0.682431021
     0.834812771  0.840015896  0.683784739
     0.076133682  0.919431625  0.695528910
     0.423167130  0.336382532  0.850070588
     0.423311486  0.419384653  0.194230078
     0.759945547  0.021769708  0.309031462
     0.761117750  0.733960479  0.737262768
     0.739938248  0.521703307  0.808042671
     0.738565858  0.233897290  0.236261325
     0.237193052  0.734114203  0.237346123
     0.263325834  0.521808708  0.307268316
     0.236282250  0.021829515  0.808095922
     0.262673098  0.234009870  0.736250963
     0.628384530  0.005381083  0.007488087
     0.892793509  0.039358954  0.608949437
     0.894749518  0.716529393  0.437839162
     0.607218236  0.539201088  0.108111709
     0.605395937  0.216333210  0.936520023
     0.369034717  0.750484208  0.538714919
     0.871568622  0.505442043  0.506495702
     0.871044712  0.250249433  0.537172151
     0.131576110  0.505410875  0.005808127
     0.104545363  0.716487851  0.937257126
     0.103248827  0.039582006  0.107816890
     0.395389765  0.216285588  0.436312500
     0.628159985  0.750163730  0.037828440
     0.367395318  0.005279898  0.506301827
     0.130935816  0.250494428  0.037610968
     0.396572789  0.539448714  0.606901018

  ion indices of the primitive-cell ions
   primitive index   ion index
                 1           1
                 2           2
                 3           3
                 4           4
                 5           5
                 6           6
                 7           7
                 8           8
                 9           9
                10          10
                11          11
                12          12
                13          13
                14          14
                15          15
                16          16
                17          17
                18          18
                19          19
                20          20
                21          21
                22          22
                23          23
                24          24
                25          25
                26          26
                27          27
                28          28
                29          29
                30          30
                31          31
                32          32
                33          33
                34          34
                35          35
                36          36
                37          37
                38          38
                39          39
                40          40
                41          41
                42          42
                43          43
                44          44
                45          45
                46          46
                47          47
                48          48
                49          49
                50          50
                51          51
                52          52
                53          53
                54          54
                55          55
                56          56
                57          57
                58          58
                59          59
                60          60
                61          61
                62          62
                63          63
                64          64
                65          65
                66          66
                67          67
                68          68
                69          69
                70          70
                71          71
                72          72
                73          73
                74          74
                75          75
                76          76
                77          77
                78          78
                79          79
                80          80
                81          81
                82          82
                83          83
                84          84
                85          85
                86          86
                87          87
                88          88
                89          89
                90          90
                91          91
                92          92
                93          93
                94          94
                95          95
                96          96
                97          97
                98          98
                99          99
               100         100
               101         101
               102         102
               103         103
               104         104
               105         105
               106         106
               107         107
               108         108
               109         109
               110         110
               111         111
               112         112
               113         113
               114         114
               115         115
               116         116
               117         117
               118         118
               119         119
               120         120
               121         121
               122         122
               123         123
               124         124
               125         125
               126         126
               127         127
               128         128
               129         129
               130         130
               131         131
               132         132
               133         133
               134         134
               135         135
               136         136
               137         137
               138         138
               139         139
               140         140
               141         141
               142         142
               143         143
               144         144
               145         145
               146         146
               147         147
               148         148
               149         149
               150         150
               151         151
               152         152
               153         153
               154         154
               155         155
               156         156

----------------------------------------------------------------------------------------

 
 

Automatic generation of k-mesh.
 generate k-points for:    3    1    4
Space group operators:
 irot       det(A)        alpha          n_x          n_y          n_z        tau_x        tau_y        tau_z
    1     1.000000     0.000000     1.000000     0.000000     0.000000     0.000000     0.000000     0.000000
 
 Subroutine IBZKPT returns following result:
 ===========================================
 
 Found      7 irreducible k-points:
 
 Following reciprocal coordinates:
            Coordinates               Weight
  0.000000  0.000000  0.000000      1.000000
  0.333333  0.000000 -0.000000      2.000000
  0.000000  0.000000  0.250000      2.000000
  0.333333  0.000000  0.250000      2.000000
 -0.333333 -0.000000  0.250000      2.000000
  0.000000  0.000000  0.500000      1.000000
  0.333333 -0.000000  0.500000      2.000000
 
 Following cartesian coordinates:
            Coordinates               Weight
  0.000000  0.000000  0.000000      1.000000
  0.039145 -0.000002 -0.000002      2.000000
  0.000007  0.003654  0.037329      2.000000
  0.039151  0.003652  0.037326      2.000000
 -0.039138  0.003656  0.037331      2.000000
  0.000013  0.007308  0.074657      1.000000
  0.039158  0.007306  0.074655      2.000000
 


--------------------------------------------------------------------------------------------------------




 Dimension of arrays:
   k-points           NKPTS =      7   k-points in BZ     NKDIM =      7   number of bands    NBANDS=    400
   number of dos      NEDOS =    301   number of ions     NIONS =    156
   non local maximal  LDIM  =      6   non local SUM 2l+1 LMDIM =     18
   total plane-waves  NPLWV = 453600
   max r-space proj   IRMAX =   2320   max aug-charges    IRDMAX=   7438
   dimension x,y,z NGX =    54 NGY =  200 NGZ =   42
   dimension x,y,z NGXF=   108 NGYF=  400 NGZF=   84
   support grid    NGXF=   108 NGYF=  400 NGZF=   84
   ions per type =              80   4  32  24  16
   NGX,Y,Z   is equivalent  to a cutoff of  10.54, 10.10, 10.28 a.u.
   NGXF,Y,Z  is equivalent  to a cutoff of  21.08, 20.21, 20.56 a.u.

 SYSTEM =  flex_MOF                                
 POSCAR =  Zn_H                                    

 Startparameter for this run:
   NWRITE =      2    write-flag & timer
   PREC   = normal    normal or accurate (medium, high low for compatibility)
   ISTART =      0    job   : 0-new  1-cont  2-samecut
   ICHARG =      2    charge: 1-file 2-atom 10-const
   ISPIN  =      1    spin polarized calculation?
   LNONCOLLINEAR =      F non collinear calculations
   LSORBIT =      F    spin-orbit coupling
   INIWAV =      1    electr: 0-lowe 1-rand  2-diag
   LASPH  =      F    aspherical Exc in radial PAW
   METAGGA=      F    non-selfconsistent MetaGGA calc.

 Electronic Relaxation 1
   ENCUT  =  600.0 eV  44.10 Ry    6.64 a.u.  17.01 65.72 13.56*2*pi/ulx,y,z
   ENINI  =  600.0     initial cutoff
   ENAUG  =  644.9 eV  augmentation charge cutoff
   NELM   =     80;   NELMIN=  4; NELMDL=-12     # of ELM steps 
   EDIFF  = 0.1E-05   stopping-criterion for ELM
   LREAL  =      T    real-space projection
   NLSPLINE    = F    spline interpolate recip. space projectors
   LCOMPAT=      F    compatible to vasp.4.4
   GGA_COMPAT  = T    GGA compatible to vasp.4.4-vasp.4.6
   LMAXPAW     = -100 max onsite density
   LMAXMIX     =    2 max onsite mixed and CHGCAR
   VOSKOWN=      0    Vosko Wilk Nusair interpolation
   ROPT   =   -0.00050  -0.00050  -0.00050  -0.00050
   ROPT   =   -0.00050
 Ionic relaxation
   EDIFFG = -.1E-01   stopping-criterion for IOM
   NSW    =   1000    number of steps for IOM
   NBLOCK =      1;   KBLOCK =   1000    inner block; outer block 
   IBRION =      2    ionic relax: 0-MD 1-quasi-New 2-CG
   NFREE  =      1    steps in history (QN), initial steepest desc. (CG)
   ISIF   =      4    stress and relaxation
   IWAVPR =     11    prediction:  0-non 1-charg 2-wave 3-comb
   ISYM   =      0    0-nonsym 1-usesym 2-fastsym
   LCORR  =      T    Harris-Foulkes like correction to forces

   POTIM  = 0.5000    time-step for ionic-motion
   TEIN   =    0.0    initial temperature
   TEBEG  =    0.0;   TEEND  =   0.0 temperature during run
   SMASS  =  -3.00    Nose mass-parameter (am)
   estimated Nose-frequenzy (Omega)   =  0.10E-29 period in steps = 0.13E+47 mass=  -0.166E-26a.u.
   SCALEE = 1.0000    scale energy and forces
   NPACO  =    256;   APACO  = 16.0  distance and # of slots for P.C.
   PSTRESS=    0.0 pullay stress

  Mass of Ions in am
   POMASS =  12.01 65.39  1.00 14.00 16.00
  Ionic Valenz
   ZVAL   =   4.00 12.00  1.00  5.00  6.00
  Atomic Wigner-Seitz radii
   RWIGS  =  -1.00 -1.00 -1.00 -1.00 -1.00
  virtual crystal weights 
   VCA    =   1.00  1.00  1.00  1.00  1.00
   NELECT =     616.0000    total number of electrons
   NUPDOWN=      -1.0000    fix difference up-down

 DOS related values:
   EMIN   =  10.00;   EMAX   =-10.00  energy-range for DOS
   EFERMI =   0.00
   ISMEAR =     0;   SIGMA  =   0.05  broadening in eV -4-tet -1-fermi 0-gaus

 Electronic relaxation 2 (details)
   IALGO  =     48    algorithm
   LDIAG  =      T    sub-space diagonalisation (order eigenvalues)
   LSUBROT=      F    optimize rotation matrix (better conditioning)
   TURBO    =      0    0=normal 1=particle mesh
   IRESTART =      0    0=no restart 2=restart with 2 vectors
   NREBOOT  =      0    no. of reboots
   NMIN     =      0    reboot dimension
   EREF     =   0.00    reference energy to select bands
   IMIX   =      4    mixing-type and parameters
     AMIX     =   0.40;   BMIX     =  1.00
     AMIX_MAG =   1.60;   BMIX_MAG =  1.00
     AMIN     =   0.10
     WC   =   100.;   INIMIX=   1;  MIXPRE=   1;  MAXMIX= -45

 Intra band minimization:
   WEIMIN = 0.0010     energy-eigenvalue tresh-hold
   EBREAK =  0.63E-09  absolut break condition
   DEPER  =   0.30     relativ break condition  

   TIME   =   0.40     timestep for ELM

  volume/ion in A,a.u.               =      11.97        80.79
  Fermi-wavevector in a.u.,A,eV,Ry     =   1.131114  2.137495 17.407541  1.279418
  Thomas-Fermi vector in A             =   2.267812
 
 Write flags
   LWAVE        =      T    write WAVECAR
   LDOWNSAMPLE  =      F    k-point downsampling of WAVECAR
   LCHARG       =      T    write CHGCAR
   LVTOT        =      F    write LOCPOT, total local potential
   LVHAR        =      F    write LOCPOT, Hartree potential only
   LELF         =      F    write electronic localiz. function (ELF)
   LORBIT       =      0    0 simple, 1 ext, 2 COOP (PROOUT), +10 PAW based schemes


 Dipole corrections
   LMONO  =      F    monopole corrections only (constant potential shift)
   LDIPOL =      F    correct potential (dipole corrections)
   IDIPOL =      0    1-x, 2-y, 3-z, 4-all directions 
   EPSILON=  1.0000000 bulk dielectric constant

 Exchange correlation treatment:
   GGA     =    PE    GGA type
   LEXCH   =     8    internal setting for exchange type
   VOSKOWN=      0    Vosko Wilk Nusair interpolation
   LHFCALC =     F    Hartree Fock is set to
   LHFONE  =     F    Hartree Fock one center treatment
   AEXX    =    0.0000 exact exchange contribution

 Linear response parameters
   LEPSILON=     F    determine dielectric tensor
   LRPA    =     F    only Hartree local field effects (RPA)
   LNABLA  =     F    use nabla operator in PAW spheres
   LVEL    =     F    velocity operator in full k-point grid
   LINTERFAST=   F  fast interpolation
   KINTER  =     0    interpolate to denser k-point grid
   CSHIFT  =0.1000    complex shift for real part using Kramers Kronig
   OMEGAMAX=  -1.0    maximum frequency
   DEG_THRESHOLD= 0.2000000E-02 threshold for treating states as degnerate
   RTIME   =   -0.100 relaxation time in fs
  (WPLASMAI=    0.000 imaginary part of plasma frequency in eV, 0.658/RTIME)
   DFIELD  = 0.0000000 0.0000000 0.0000000 field for delta impulse in time
 
 Orbital magnetization related:
   ORBITALMAG=     F  switch on orbital magnetization
   LCHIMAG   =     F  perturbation theory with respect to B field
   DQ        =  0.001000  dq finite difference perturbation B field
   LLRAUG    =     F  two centre corrections for induced B field



--------------------------------------------------------------------------------------------------------


 conjugate gradient relaxation of ions
 charge density and potential will be updated during run
 non-spin polarized calculation
 RMM-DIIS sequential band-by-band
 perform sub-space diagonalisation
    before iterative eigenvector-optimisation
 modified Broyden-mixing scheme, WC =      100.0
 initial mixing is a Kerker type mixing with AMIX =  0.4000 and BMIX =      1.0000
 Hartree-type preconditioning will be used
 using additional bands           92
 real space projection scheme for non local part
 use partial core corrections
 calculate Harris-corrections to forces 
   (improved forces if not selfconsistent)
 use gradient corrections 
 use of overlap-Matrix (Vanderbilt PP)
 Gauss-broadening in eV      SIGMA  =   0.05


--------------------------------------------------------------------------------------------------------


  energy-cutoff  :      600.00
  volume of cell :     1867.61
      direct lattice vectors                 reciprocal lattice vectors
     8.515454526 -0.000904288 -0.001425589     0.117433542 -0.000006153 -0.000007020
     0.001524216 32.747597891 -3.205745591     0.000003766  0.030824897  0.002945133
     0.000370289 -0.645927133  6.760521845     0.000026549  0.014616737  0.149314115

  length of vectors
     8.515454693 32.904133095  6.791308977     0.117433542  0.030965273  0.150027846


 
 k-points in units of 2pi/SCALE and weight: read from INCAR                         
   0.00000000  0.00000000  0.00000000       0.083
   0.03914451 -0.00000205 -0.00000234       0.167
   0.00000664  0.00365418  0.03732853       0.167
   0.03915115  0.00365213  0.03732619       0.167
  -0.03913788  0.00365624  0.03733087       0.167
   0.00001327  0.00730837  0.07465706       0.083
   0.03915779  0.00730632  0.07465472       0.167
 
 k-points in reciprocal lattice and weights: read from INCAR                         
   0.00000000  0.00000000  0.00000000       0.083
   0.33333333  0.00000000 -0.00000000       0.167
   0.00000000  0.00000000  0.25000000       0.167
   0.33333333  0.00000000  0.25000000       0.167
  -0.33333333 -0.00000000  0.25000000       0.167
   0.00000000  0.00000000  0.50000000       0.083
   0.33333333 -0.00000000  0.50000000       0.167
 
 position of ions in fractional coordinates (direct lattice) 
   0.89606666  0.95719571  0.15559909
   0.75808360  0.95199990  0.42813765
   0.89644398  0.79864595  0.89151599
   0.60400623  0.45709612  0.65423193
   0.74071572  0.30365328  0.11722084
   0.23826159  0.80388902  0.11857740
   0.74157347  0.45195032  0.92719938
   0.60312678  0.29856595  0.39025705
   0.26195441  0.45212626  0.42701073
   0.10084848  0.79868037  0.39155140
   0.23780364  0.95216106  0.92802298
   0.26152338  0.30376282  0.61718597
   0.75883310  0.80373539  0.61849195
   0.10012275  0.95719537  0.65500245
   0.39903290  0.29858373  0.89018404
   0.39926105  0.45715011  0.15371683
   0.68726116  0.03208499  0.13765954
   0.82709119  0.05062946  0.46708443
   0.82862857  0.70517876  0.57920149
   0.67287017  0.55051663  0.96633494
   0.67128593  0.20505490  0.07824021
   0.31045442  0.72377550  0.40830956
   0.81265830  0.53209634  0.63686264
   0.81169058  0.22356653  0.40732515
   0.19022696  0.53212654  0.13614236
   0.17070293  0.70523083  0.07885390
   0.16951718  0.05076492  0.96611795
   0.32923105  0.20508054  0.57802734
   0.68782805  0.72354177  0.90798815
   0.30913294  0.03206030  0.63661429
   0.18947009  0.22374709  0.90739165
   0.33021176  0.55069772  0.46543222
   0.68754514  0.07650270  0.12353180
   0.81625200  0.09491443  0.45257992
   0.81750736  0.66085721  0.59302467
   0.68369947  0.59482310  0.95221592
   0.68240319  0.16076159  0.09258995
   0.31104194  0.67932472  0.42191732
   0.81232140  0.57654259  0.62313063
   0.81121273  0.17915720  0.42159043
   0.18984027  0.57657584  0.12239102
   0.18282550  0.66091111  0.09257132
   0.18163823  0.09505028  0.95190108
   0.31709313  0.16078131  0.59214834
   0.68856645  0.67911462  0.92195068
   0.30977710  0.07649176  0.62259601
   0.18886467  0.17932072  0.92139820
   0.31812848  0.59500907  0.45165947
   0.62562770  0.08858220  0.95473361
   0.87630046  0.12510342  0.60548562
   0.87764891  0.63072044  0.43996915
   0.62358919  0.62495675  0.10528296
   0.62221441  0.13057509  0.93977695
   0.37308981  0.66723899  0.59064685
   0.87416991  0.58870272  0.45449429
   0.87294341  0.16709006  0.59053133
   0.12790337  0.58867316  0.95363112
   0.12354125  0.63069036  0.93921638
   0.12229727  0.12531489  0.10496785
   0.37634009  0.13051309  0.43902552
   0.62683998  0.66696333  0.09067634
   0.37178659  0.08851323  0.45370230
   0.12674454  0.16730978  0.09025169
   0.37752009  0.62522030  0.60495528
   0.79543942  0.97913678  0.30003212
   0.79627233  0.77662249  0.74670034
   0.70450208  0.47905997  0.79882627
   0.70327219  0.27654368  0.24544223
   0.20122396  0.77673548  0.24675032
   0.29899161  0.47918273  0.29834030
   0.20055503  0.97922014  0.79945774
   0.29864350  0.27662533  0.74540092
   0.75045667  0.10656875  0.28049472
   0.75158450  0.64910861  0.76482123
   0.74947073  0.60655848  0.78032035
   0.74831504  0.14909437  0.26459582
   0.24889997  0.64923372  0.26447246
   0.25199859  0.60667555  0.27979728
   0.24775613  0.10664155  0.77986052
   0.25096927  0.14917781  0.76417662
   0.06251738  0.87797648  0.02350500
   0.93382653  0.87794496  0.52332027
   0.43713724  0.37789976  0.52223805
   0.56573160  0.37788902  0.02236659
   0.42614352  0.14009767  0.30763344
   0.91860458  0.56482135  0.33395200
   0.91731023  0.19102101  0.71093659
   0.58111219  0.06465326  0.83443106
   0.58233799  0.69084326  0.21119622
   0.57417503  0.61526101  0.23659744
   0.07380273  0.64032458  0.80789646
   0.07251100  0.11572534  0.23635887
   0.92727318  0.64042010  0.30877950
   0.08294889  0.19129846  0.21077653
   0.08411886  0.56473409  0.83286505
   0.41686860  0.69118267  0.71140442
   0.42730215  0.61557754  0.73621968
   0.57252750  0.14021677  0.80846877
   0.92572571  0.11546807  0.73696818
   0.41544953  0.06453451  0.33304973
   0.81390601  0.45673950  0.06137014
   0.18914095  0.29898015  0.48305959
   0.45451859  0.46743053  0.02819164
   0.04564356  0.78831756  0.51688669
   0.31020731  0.95702339  0.06211992
   0.45426319  0.28823946  0.01556676
   0.95157630  0.96757124  0.03049999
   0.68647803  0.79890719  0.48435951
   0.04476205  0.96747820  0.52954562
   0.54870954  0.46744796  0.52893479
   0.81306140  0.29881498  0.98309044
   0.68558322  0.95677811  0.56212281
   0.54779600  0.28825068  0.51562928
   0.18973340  0.45698785  0.56126097
   0.31060495  0.79911131  0.98444916
   0.95182959  0.78834580  0.01691277
   0.92000596  0.91939457  0.19566133
   0.83443827  0.91577117  0.36299872
   0.92014287  0.83646153  0.85143779
   0.57988642  0.41931040  0.69442952
   0.66474212  0.33993386  0.18253280
   0.16184477  0.84009882  0.18383559
   0.66520879  0.41572226  0.86204158
   0.57943036  0.33638080  0.35017607
   0.33815854  0.41586953  0.36205132
   0.07660691  0.83647446  0.35145393
   0.16151545  0.91590709  0.86317838
   0.33789349  0.33998718  0.68243102
   0.83481277  0.84001590  0.68378474
   0.07613368  0.91943163  0.69552891
   0.42316713  0.33638253  0.85007059
   0.42331149  0.41938465  0.19423008
   0.75994555  0.02176971  0.30903146
   0.76111775  0.73396048  0.73726277
   0.73993825  0.52170331  0.80804267
   0.73856586  0.23389729  0.23626133
   0.23719305  0.73411420  0.23734612
   0.26332583  0.52180871  0.30726832
   0.23628225  0.02182952  0.80809592
   0.26267310  0.23400987  0.73625096
   0.62838453  0.00538108  0.00748809
   0.89279351  0.03935895  0.60894944
   0.89474952  0.71652939  0.43783916
   0.60721824  0.53920109  0.10811171
   0.60539594  0.21633321  0.93652002
   0.36903472  0.75048421  0.53871492
   0.87156862  0.50544204  0.50649570
   0.87104471  0.25024943  0.53717215
   0.13157611  0.50541087  0.00580813
   0.10454536  0.71648785  0.93725713
   0.10324883  0.03958201  0.10781689
   0.39538976  0.21628559  0.43631250
   0.62815998  0.75016373  0.03782844
   0.36739532  0.00527990  0.50630183
   0.13093582  0.25049443  0.03761097
   0.39657279  0.53944871  0.60690102
 
 position of ions in cartesian coordinates  (Angst):
   7.63193148 31.24454411 -2.01787227
   6.45703602 30.89847877 -0.15851626
   7.63517541 25.57707156  3.46557962
   5.14432657 14.54566766  2.95675429
   6.30803727  9.86752964 -0.18201710
   2.03017497 26.24862666 -1.77575828
   6.31586736 14.20071342  4.81845677
   5.13649825  9.52469467  1.68035503
   2.23150810 14.52999413  1.43704017
   0.86013301 25.90185863  0.08658197
   2.02680102 30.58133734  3.22119447
   2.22768201  9.54860906  3.19834009
   6.46326284 25.92021641  1.60367538
   0.85429223 30.92267476  1.35949079
   3.39873125  9.20254500  5.06035632
   3.40064304 14.87091698 -0.42687013
   5.85244104  0.96116674  0.82681426
   7.04330757  1.35554277  2.99425020
   7.05743826 22.71803913  1.65389937
   5.73099224 17.40330687  4.76715299
   5.71664634  6.66391081 -0.12936619
   2.64491490 23.43789021  0.43970299
   6.92120167 17.01277524  2.59859978
   6.91240584  7.05743062  2.03587599
   1.62073053 17.33775575 -0.78574009
   1.45471717 23.04352750 -1.72794050
   1.44395092  1.03823411  6.36848042
   2.80407869  6.34223394  3.24986106
   5.85860756 23.10713864  3.81800235
   2.63269212  0.63841175  4.20062695
   1.61410096  6.74089965  5.41689469
   2.81291497 17.73309374  1.38069713
   5.85492175  2.42486553  0.58891106
   6.95106907  2.81514767  2.75424128
   6.96267364 21.25769603  1.88945075
   5.82327096 18.86334728  4.52965035
   5.81125268  5.20413241  0.10962277
   2.64985513 21.97344353  0.67419563
   6.91839547 18.47715337  2.36328131
   6.90827430  5.59391761  2.27468244
   1.61750029 18.80224645 -1.02119892
   1.55788388 21.58329149 -1.49314307
   1.54722946  2.49764524  6.13038210
   2.70065647  4.88243042  3.48735575
   5.86483278 21.64323700  4.05481740
   2.63823990  2.10248972  3.96341917
   1.60888300  5.27699599  5.65400681
   2.71008279 19.19309097  1.14555247
   5.32799274  2.28360014  6.16963354
   7.46251165  3.70494443  3.69109980
   7.47470366 20.36959754  0.95124060
   5.31113697 20.39726343 -1.29257357
   5.29898554  3.66843051  5.93390508
   3.17826502 21.46862200  1.85355061
   7.44501973 18.98423941  1.18414122
   7.43398329  5.08956856  3.45540726
   1.09040572 18.66154016  4.55972532
   1.05331898 20.04681709  4.32758391
   1.04164669  4.03584948  0.30773541
   3.20506841  3.99007140  2.54911335
   5.33887754 21.78230982 -1.52598901
   3.16623469  2.60520072  2.78298341
   1.07957582  5.42058274  0.07361522
   3.21593217 20.08336459  2.08497795
   6.77513175 31.86985930 -1.11162368
   6.78208107 24.94948710  2.55729465
   6.00018141 15.17144252  3.86373373
   5.98919475  8.89696735  0.77178629
   1.71478874 25.27665648 -0.82214227
   2.54689032 15.49910679  0.48037198
   1.70960581 31.55053457  2.26533499
   2.54378282  8.57707024  4.15208304
   6.39074597  3.30801276  1.55358853
   6.40135619 20.76204936  3.08864213
   6.38329735 19.35862524  3.32983218
   6.37256794  4.71089607  1.30978044
   2.12058387 21.08978981 -0.29366112
   2.14691086 19.68621031 -0.05363106
   2.11020734  2.98829760  4.93004521
   2.13762776  4.39138547  4.68764888
   0.53371083 28.73638171 -2.65575228
   7.95348928 28.41171719  0.72211867
   3.72319166 12.03758650  2.31852806
   4.81804595 12.35999886 -1.06101275
   3.62913322  4.38876793  1.63003759
   7.82332007 18.28000319  0.44570666
   7.81186796  5.79543642  4.19262987
   4.94884197  1.57773172  5.43309909
   4.96000386 22.48651326 -0.78770123
   4.89038675 19.99497631 -0.37366667
   0.62973894 20.44718287  3.40897878
   0.61772799  3.63699069  1.22681992
   7.89724311 20.77193238  0.03316474
   0.70671714  6.12834384  0.81158687
   0.71747952 17.95563860  3.82008862
   3.55114258 22.17467961  2.59311503
   3.63988296 19.68275496  3.00323513
   4.87584497  4.06903275  5.01535530
   7.88342409  3.30443693  4.61080852
   3.53796324  1.89784859  2.04411649
   6.93149852 14.91674491 -1.05045679
   1.61125571  9.47868954  2.30701097
   3.87115526 15.28860632 -1.30852114
   0.39006866 25.48159395  0.96721316
   2.64303797 31.29981158 -2.64845264
   3.86870265  9.42868411 -0.81943052
   8.10459075 31.66507264 -2.89694791
   5.84706955 25.84880978  0.71245120
   0.38283995 31.34049865  0.47845194
   4.67341950 14.96564819  2.07657371
   6.92440683  9.14973290  5.68712050
   5.83971919 30.96847453  0.73207895
   4.66536218  9.10596316  2.56108372
   1.61657050 14.60254910  2.32915976
   2.64652485 25.53281269  4.09319970
   8.10646942 25.80464618 -2.41425388
   7.83574274 29.98074870 -1.62588391
   7.10715141 29.75408076 -0.48285816
   7.83702502 26.84130686  3.07336916
   4.93889266 13.28233323  3.34967682
   5.66116704 11.01351350  0.14332788
   1.37953038 27.39232758 -1.45054927
   5.66550804 13.05648793  4.49420279
   4.93475523 10.78895095  1.28819569
   2.88034159 13.38456371  1.11400187
   0.65374777 27.16544652 -0.30562160
   1.37709311 29.43606081  2.89914091
   2.87808754 10.69265725  3.52319572
   7.11034376 27.06607274  1.92867431
   0.64997186 29.65984731  1.75456597
   3.60428794 10.46625357  4.66796070
   3.60540086 13.60799872 -0.03194729
   6.47142936  0.51260662  2.01834244
   6.48265531 23.55853633  2.63030544
   6.30200490 16.56192430  3.78928721
   6.28966797  7.50629892  0.84638175
   2.02101348 23.88695393 -0.74913786
   2.24324830 16.88927066  0.40413281
   2.01238326  0.19267944  5.39283342
   2.23741013  7.18745912  4.22689015
   5.35099086  0.17081256  0.03247717
   7.60282801  0.89476691  3.98936842
   7.62045311 23.18099513  0.66173473
   5.17160117 17.58715904 -0.99851558
   5.15589809  6.47892184  5.63699179
   3.14384173 24.22825077  1.23560645
   7.42276092 16.22406530  1.80261416
   7.41792198  7.84730606  2.82808629
   1.12120289 16.54712148 -1.58114029
   0.89169043 22.85776169  4.03932047
   0.87931095  1.22648040  0.60186141
   3.36741479  6.80064985  2.25577995
   5.35022520 24.54105773 -2.14998958
   3.12873365 -0.15446233  3.40541479
   1.11537372  8.17867845 -0.54893830
   3.37804452 17.27327713  2.37306690
 


--------------------------------------------------------------------------------------------------------


 k-point  1 :   0.0000 0.0000 0.0000  plane waves:   62259
 k-point  2 :   0.3333 0.0000-0.0000  plane waves:   62394
 k-point  3 :   0.0000 0.0000 0.2500  plane waves:   62291
 k-point  4 :   0.3333 0.0000 0.2500  plane waves:   62357
 k-point  5 :  -0.3333-0.0000 0.2500  plane waves:   62355
 k-point  6 :   0.0000 0.0000 0.5000  plane waves:   62198
 k-point  7 :   0.3333-0.0000 0.5000  plane waves:   62318

 maximum and minimum number of plane-waves per node :     15639    15517

 maximum number of plane-waves:     62394
 maximum index in each direction: 
   IXMAX=   17   IYMAX=   65   IZMAX=   13
   IXMIN=  -17   IYMIN=  -65   IZMIN=  -14


 real space projection operators:
  total allocation   :      12355.22 KBytes
  max/ min on nodes  :       3163.24       3012.87


 parallel 3D FFT for wavefunctions:
    minimum data exchange during FFTs selected (reduces bandwidth)
 parallel 3D FFT for charge:
    minimum data exchange during FFTs selected (reduces bandwidth)


 total amount of memory used by VASP MPI-rank0    97635. kBytes
=======================================================================

   base      :      30000. kBytes
   nonlr-proj:       6294. kBytes
   fftplans  :       5843. kBytes
   grid      :      10227. kBytes
   one-center:        606. kBytes
   wavefun   :      44665. kBytes
 
     INWAV:  cpu time    0.0002: real time    0.0001
 Broyden mixing: mesh for mixing (old mesh)
   NGX = 35   NGY =131   NGZ = 27
  (NGX  =108   NGY  =400   NGZ  = 84)
  gives a total of 123795 points

 initial charge density was supplied:
 charge density of overlapping atoms calculated
 number of electron     616.0000000 magnetization 
 keeping initial charge density in first step


--------------------------------------------------------------------------------------------------------


 Maximum index for non-local projection operator          651
 Maximum index for augmentation-charges          411 (set IRDMAX)


--------------------------------------------------------------------------------------------------------


 First call to EWALD:  gamma=   0.144
 Maximum number of real-space cells 4x 1x 5
 Maximum number of reciprocal cells 2x 7x 2

    FEWALD:  cpu time    0.0152: real time    0.0152


--------------------------------------- Iteration      1(   1)  ---------------------------------------


    POTLOK:  cpu time    0.0978: real time    0.1609
    SETDIJ:  cpu time    0.0301: real time    0.0319
    EDDIAG:  cpu time    3.7727: real time    3.8346
  RMM-DIIS:  cpu time    4.9419: real time    4.9469
    ORTHCH:  cpu time    0.8146: real time    0.8158
       DOS:  cpu time    0.0052: real time    0.0055
    --------------------------------------------
      LOOP:  cpu time    9.6624: real time    9.7957

 eigenvalue-minimisations  :  2800
 total energy-change (2. order) : 0.6043852E+04  (-0.2707142E+05)
 number of electron     616.0000000 magnetization 
 augmentation part      616.0000000 magnetization 

 Free energy of the ion-electron system (eV)
  ---------------------------------------------------
  alpha Z        PSCENC =      1034.42558910
  Ewald energy   TEWEN  =     -9118.37563732
  -Hartree energ DENC   =    -20598.02112358
  -exchange      EXHF   =         0.00000000
  -V(xc)+E(xc)   XCENC  =      2277.16857260
  PAW double counting   =     25034.14638475   -25847.60581054
  entropy T*S    EENTRO =        -0.06013241
  eigenvalues    EBANDS =       828.49407112
  atomic energy  EATOM  =     32433.67991533
  Solvation  Ediel_sol  =         0.00000000
  ---------------------------------------------------
  free energy    TOTEN  =      6043.85182905 eV

  energy without entropy =     6043.91196146  energy(sigma->0) =     6043.88189525


--------------------------------------------------------------------------------------------------------




--------------------------------------- Iteration      1(   2)  ---------------------------------------


    EDDIAG:  cpu time    3.6465: real time    3.6502
  RMM-DIIS:  cpu time    4.8988: real time    4.9044
    ORTHCH:  cpu time    0.8139: real time    0.8147
       DOS:  cpu time    0.0033: real time    0.0033
    --------------------------------------------
      LOOP:  cpu time    9.3626: real time    9.3726

 eigenvalue-minimisations  :  2800
 total energy-change (2. order) :-0.3970318E+04  (-0.6682790E+04)
 number of electron     616.0000000 magnetization 
 augmentation part      616.0000000 magnetization 

 Free energy of the ion-electron system (eV)
  ---------------------------------------------------
  alpha Z        PSCENC =      1034.42558910
  Ewald energy   TEWEN  =     -9118.37563732
  -Hartree energ DENC   =    -20598.02112358
  -exchange      EXHF   =         0.00000000
  -V(xc)+E(xc)   XCENC  =      2277.16857260
  PAW double counting   =     25034.14638475   -25847.60581054
  entropy T*S    EENTRO =        -0.03416742
  eigenvalues    EBANDS =     -3141.84982342
  atomic energy  EATOM  =     32433.67991533
  Solvation  Ediel_sol  =         0.00000000
  ---------------------------------------------------
  free energy    TOTEN  =      2073.53389951 eV

  energy without entropy =     2073.56806692  energy(sigma->0) =     2073.55098321


--------------------------------------------------------------------------------------------------------




--------------------------------------- Iteration      1(   3)  ---------------------------------------


    EDDIAG:  cpu time    3.6801: real time    3.6836
  RMM-DIIS:  cpu time    4.8906: real time    4.8952
    ORTHCH:  cpu time    0.8184: real time    0.8194
       DOS:  cpu time    0.0037: real time    0.0037
    --------------------------------------------
      LOOP:  cpu time    9.3927: real time    9.4018

 eigenvalue-minimisations  :  2800
 total energy-change (2. order) :-0.2036952E+04  (-0.2369175E+04)
 number of electron     616.0000000 magnetization 
 augmentation part      616.0000000 magnetization 

 Free energy of the ion-electron system (eV)
  ---------------------------------------------------
  alpha Z        PSCENC =      1034.42558910
  Ewald energy   TEWEN  =     -9118.37563732
  -Hartree energ DENC   =    -20598.02112358
  -exchange      EXHF   =         0.00000000
  -V(xc)+E(xc)   XCENC  =      2277.16857260
  PAW double counting   =     25034.14638475   -25847.60581054
  entropy T*S    EENTRO =        -0.03134199
  eigenvalues    EBANDS =     -5178.80441476
  atomic energy  EATOM  =     32433.67991533
  Solvation  Ediel_sol  =         0.00000000
  ---------------------------------------------------
  free energy    TOTEN  =        36.58213359 eV

  energy without entropy =       36.61347558  energy(sigma->0) =       36.59780459


--------------------------------------------------------------------------------------------------------




--------------------------------------- Iteration      1(   4)  ---------------------------------------


    EDDIAG:  cpu time    3.6337: real time    3.6384
  RMM-DIIS:  cpu time    4.8913: real time    4.8967
    ORTHCH:  cpu time    0.8139: real time    0.8149
       DOS:  cpu time    0.0037: real time    0.0036
    --------------------------------------------
      LOOP:  cpu time    9.3426: real time    9.3537

 eigenvalue-minimisations  :  2800
 total energy-change (2. order) :-0.8429770E+03  (-0.7974504E+03)
 number of electron     616.0000000 magnetization 
 augmentation part      616.0000000 magnetization 

 Free energy of the ion-electron system (eV)
  ---------------------------------------------------
  alpha Z        PSCENC =      1034.42558910
  Ewald energy   TEWEN  =     -9118.37563732
  -Hartree energ DENC   =    -20598.02112358
  -exchange      EXHF   =         0.00000000
  -V(xc)+E(xc)   XCENC  =      2277.16857260
  PAW double counting   =     25034.14638475   -25847.60581054
  entropy T*S    EENTRO =        -0.01581107
  eigenvalues    EBANDS =     -6021.79695543
  atomic energy  EATOM  =     32433.67991533
  Solvation  Ediel_sol  =         0.00000000
  ---------------------------------------------------
  free energy    TOTEN  =      -806.39487616 eV

  energy without entropy =     -806.37906509  energy(sigma->0) =     -806.38697062


--------------------------------------------------------------------------------------------------------




--------------------------------------- Iteration      1(   5)  ---------------------------------------


    EDDIAG:  cpu time    3.6933: real time    3.6976
  RMM-DIIS:  cpu time    4.8871: real time    4.9030
    ORTHCH:  cpu time    0.8132: real time    0.8141
       DOS:  cpu time    0.0032: real time    0.0032
    --------------------------------------------
      LOOP:  cpu time    9.3967: real time    9.4179

 eigenvalue-minimisations  :  2800
 total energy-change (2. order) :-0.2818451E+03  (-0.2505015E+03)
 number of electron     616.0000000 magnetization 
 augmentation part      616.0000000 magnetization 

 Free energy of the ion-electron system (eV)
  ---------------------------------------------------
  alpha Z        PSCENC =      1034.42558910
  Ewald energy   TEWEN  =     -9118.37563732
  -Hartree energ DENC   =    -20598.02112358
  -exchange      EXHF   =         0.00000000
  -V(xc)+E(xc)   XCENC  =      2277.16857260
  PAW double counting   =     25034.14638475   -25847.60581054
  entropy T*S    EENTRO =        -0.00378437
  eigenvalues    EBANDS =     -6303.65406944
  atomic energy  EATOM  =     32433.67991533
  Solvation  Ediel_sol  =         0.00000000
  ---------------------------------------------------
  free energy    TOTEN  =     -1088.23996347 eV

  energy without entropy =    -1088.23617910  energy(sigma->0) =    -1088.23807128


--------------------------------------------------------------------------------------------------------




--------------------------------------- Iteration      1(   6)  ---------------------------------------


    EDDIAG:  cpu time    3.6371: real time    3.6409
  RMM-DIIS:  cpu time    4.8957: real time    4.9012
    ORTHCH:  cpu time    0.8144: real time    0.8154
       DOS:  cpu time    0.0015: real time    0.0015
    --------------------------------------------
      LOOP:  cpu time    9.3487: real time    9.3590

 eigenvalue-minimisations  :  2800
 total energy-change (2. order) :-0.9259303E+02  (-0.8196766E+02)
 number of electron     616.0000000 magnetization 
 augmentation part      616.0000000 magnetization 

 Free energy of the ion-electron system (eV)
  ---------------------------------------------------
  alpha Z        PSCENC =      1034.42558910
  Ewald energy   TEWEN  =     -9118.37563732
  -Hartree energ DENC   =    -20598.02112358
  -exchange      EXHF   =         0.00000000
  -V(xc)+E(xc)   XCENC  =      2277.16857260
  PAW double counting   =     25034.14638475   -25847.60581054
  entropy T*S    EENTRO =        -0.00000000
  eigenvalues    EBANDS =     -6396.25088083
  atomic energy  EATOM  =     32433.67991533
  Solvation  Ediel_sol  =         0.00000000
  ---------------------------------------------------
  free energy    TOTEN  =     -1180.83299049 eV

  energy without entropy =    -1180.83299049  energy(sigma->0) =    -1180.83299049


--------------------------------------------------------------------------------------------------------




--------------------------------------- Iteration      1(   7)  ---------------------------------------


    EDDIAG:  cpu time    3.6754: real time    3.6790
  RMM-DIIS:  cpu time    4.8929: real time    4.8978
    ORTHCH:  cpu time    0.8151: real time    0.8160
       DOS:  cpu time    0.0014: real time    0.0014
    --------------------------------------------
      LOOP:  cpu time    9.3848: real time    9.3942

 eigenvalue-minimisations  :  2800
 total energy-change (2. order) :-0.3297494E+02  (-0.2957169E+02)
 number of electron     616.0000000 magnetization 
 augmentation part      616.0000000 magnetization 

 Free energy of the ion-electron system (eV)
  ---------------------------------------------------
  alpha Z        PSCENC =      1034.42558910
  Ewald energy   TEWEN  =     -9118.37563732
  -Hartree energ DENC   =    -20598.02112358
  -exchange      EXHF   =         0.00000000
  -V(xc)+E(xc)   XCENC  =      2277.16857260
  PAW double counting   =     25034.14638475   -25847.60581054
  entropy T*S    EENTRO =        -0.00000000
  eigenvalues    EBANDS =     -6429.22581905
  atomic energy  EATOM  =     32433.67991533
  Solvation  Ediel_sol  =         0.00000000
  ---------------------------------------------------
  free energy    TOTEN  =     -1213.80792871 eV

  energy without entropy =    -1213.80792871  energy(sigma->0) =    -1213.80792871


--------------------------------------------------------------------------------------------------------




--------------------------------------- Iteration      1(   8)  ---------------------------------------


    EDDIAG:  cpu time    3.6330: real time    3.6366
  RMM-DIIS:  cpu time    4.8956: real time    4.9008
    ORTHCH:  cpu time    0.8110: real time    0.8119
       DOS:  cpu time    0.0020: real time    0.0020
    --------------------------------------------
      LOOP:  cpu time    9.3416: real time    9.3512

 eigenvalue-minimisations  :  2800
 total energy-change (2. order) :-0.1219080E+02  (-0.1084651E+02)
 number of electron     616.0000000 magnetization 
 augmentation part      616.0000000 magnetization 

 Free energy of the ion-electron system (eV)
  ---------------------------------------------------
  alpha Z        PSCENC =      1034.42558910
  Ewald energy   TEWEN  =     -9118.37563732
  -Hartree energ DENC   =    -20598.02112358
  -exchange      EXHF   =         0.00000000
  -V(xc)+E(xc)   XCENC  =      2277.16857260
  PAW double counting   =     25034.14638475   -25847.60581054
  entropy T*S    EENTRO =        -0.00000000
  eigenvalues    EBANDS =     -6441.41661562
  atomic energy  EATOM  =     32433.67991533
  Solvation  Ediel_sol  =         0.00000000
  ---------------------------------------------------
  free energy    TOTEN  =     -1225.99872528 eV

[...]
   -.478E+02 -.410E+02 -.721E+02   0.336E+02 0.565E+02 0.840E+02   0.143E+02 -.156E+02 -.119E+02   0.421E-03 0.886E-04 -.167E-03
   0.263E+03 0.108E+03 -.379E+02   -.268E+03 -.128E+03 0.496E+02   0.499E+01 0.208E+02 -.118E+02   -.158E-03 -.267E-04 -.384E-03
   -.476E+02 -.401E+02 -.723E+02   0.333E+02 0.556E+02 0.841E+02   0.143E+02 -.155E+02 -.119E+02   0.434E-03 0.809E-04 -.174E-03
   -.263E+03 0.108E+03 -.376E+02   0.268E+03 -.129E+03 0.493E+02   -.502E+01 0.208E+02 -.117E+02   0.161E-03 -.221E-04 -.384E-03
   0.263E+03 -.109E+03 0.372E+02   -.268E+03 0.130E+03 -.488E+02   0.499E+01 -.208E+02 0.117E+02   -.155E-03 0.267E-04 0.379E-03
   0.264E+03 -.108E+03 0.373E+02   -.269E+03 0.129E+03 -.490E+02   0.505E+01 -.209E+02 0.117E+02   -.152E-03 0.309E-04 0.374E-03
   -.472E+02 0.411E+02 0.715E+02   0.329E+02 -.566E+02 -.832E+02   0.143E+02 0.156E+02 0.118E+02   0.438E-03 -.818E-04 0.172E-03
   0.473E+02 -.410E+02 -.722E+02   -.331E+02 0.565E+02 0.841E+02   -.143E+02 -.155E+02 -.119E+02   -.428E-03 0.958E-04 -.179E-03
   0.478E+02 0.405E+02 0.718E+02   -.336E+02 -.561E+02 -.836E+02   -.143E+02 0.156E+02 0.118E+02   -.425E-03 -.916E-04 0.169E-03
   0.827E+02 0.106E+03 -.155E+02   -.861E+02 -.106E+03 0.171E+02   0.339E+01 0.918E-01 -.165E+01   0.235E-03 -.930E-03 -.103E-03
   0.821E+02 -.105E+03 0.153E+02   -.854E+02 0.105E+03 -.169E+02   0.331E+01 -.883E-01 0.163E+01   0.234E-03 0.923E-03 0.111E-03
   -.824E+02 0.105E+03 -.151E+02   0.857E+02 -.106E+03 0.168E+02   -.336E+01 0.951E-01 -.163E+01   -.242E-03 -.935E-03 -.102E-03
   -.822E+02 -.106E+03 0.154E+02   0.855E+02 0.106E+03 -.171E+02   -.332E+01 -.806E-01 0.164E+01   -.229E-03 0.932E-03 0.109E-03
   -.820E+02 -.106E+03 0.151E+02   0.852E+02 0.106E+03 -.167E+02   -.328E+01 -.115E+00 0.161E+01   -.235E-03 0.939E-03 0.937E-04
   0.821E+02 0.105E+03 -.151E+02   -.854E+02 -.106E+03 0.167E+02   0.332E+01 0.104E+00 -.162E+01   0.238E-03 -.931E-03 -.108E-03
   -.825E+02 0.105E+03 -.153E+02   0.859E+02 -.106E+03 0.169E+02   -.335E+01 0.963E-01 -.163E+01   -.236E-03 -.950E-03 -.102E-03
   0.820E+02 -.106E+03 0.153E+02   -.853E+02 0.106E+03 -.170E+02   0.330E+01 -.110E+00 0.163E+01   0.237E-03 0.945E-03 0.101E-03
   0.166E+03 0.315E+03 0.205E+03   -.188E+03 -.351E+03 -.241E+03   0.222E+02 0.355E+02 0.354E+02   0.237E-03 -.117E-02 0.105E-03
   -.592E+02 0.149E+03 -.199E+03   0.834E+02 -.169E+03 0.242E+03   -.242E+02 0.205E+02 -.435E+02   0.458E-04 -.970E-03 -.343E-03
   -.598E+02 -.149E+03 0.199E+03   0.842E+02 0.169E+03 -.242E+03   -.244E+02 -.206E+02 0.434E+02   0.562E-04 0.967E-03 0.346E-03
   0.594E+02 0.149E+03 -.199E+03   -.836E+02 -.170E+03 0.242E+03   0.242E+02 0.205E+02 -.435E+02   -.504E-04 -.976E-03 -.337E-03
   0.596E+02 -.149E+03 0.199E+03   -.839E+02 0.170E+03 -.242E+03   0.243E+02 -.205E+02 0.435E+02   -.503E-04 0.973E-03 0.343E-03
   -.165E+03 -.315E+03 -.205E+03   0.187E+03 0.351E+03 0.241E+03   -.221E+02 -.355E+02 -.354E+02   -.233E-03 0.117E-02 -.101E-03
   -.165E+03 0.315E+03 0.205E+03   0.188E+03 -.350E+03 -.241E+03   -.223E+02 0.355E+02 0.354E+02   -.236E-03 -.116E-02 0.105E-03
   -.166E+03 -.316E+03 -.205E+03   0.189E+03 0.351E+03 0.240E+03   -.224E+02 -.355E+02 -.353E+02   -.225E-03 0.118E-02 -.980E-04
   0.164E+03 0.315E+03 0.205E+03   -.187E+03 -.351E+03 -.241E+03   0.222E+02 0.355E+02 0.354E+02   0.232E-03 -.117E-02 0.111E-03
   0.598E+02 -.149E+03 0.198E+03   -.842E+02 0.169E+03 -.242E+03   0.244E+02 -.204E+02 0.434E+02   -.523E-04 0.974E-03 0.345E-03
   0.606E+02 0.148E+03 -.199E+03   -.850E+02 -.169E+03 0.242E+03   0.244E+02 0.203E+02 -.434E+02   -.505E-04 -.973E-03 -.339E-03
   -.598E+02 -.149E+03 0.198E+03   0.841E+02 0.169E+03 -.242E+03   -.244E+02 -.204E+02 0.435E+02   0.554E-04 0.971E-03 0.337E-03
   0.166E+03 -.315E+03 -.205E+03   -.189E+03 0.350E+03 0.240E+03   0.225E+02 -.354E+02 -.353E+02   0.239E-03 0.116E-02 -.117E-03
   -.165E+03 0.316E+03 0.205E+03   0.187E+03 -.351E+03 -.241E+03   -.220E+02 0.357E+02 0.354E+02   -.229E-03 -.118E-02 0.103E-03
   0.165E+03 -.316E+03 -.205E+03   -.187E+03 0.352E+03 0.241E+03   0.221E+02 -.356E+02 -.354E+02   0.224E-03 0.119E-02 -.830E-04
   -.607E+02 0.149E+03 -.199E+03   0.851E+02 -.169E+03 0.242E+03   -.245E+02 0.204E+02 -.434E+02   0.540E-04 -.973E-03 -.343E-03
 -----------------------------------------------------------------------------------------------
   -.995E-01 0.828E-01 0.195E+00   0.227E-12 -.313E-12 -.199E-12   0.916E-01 -.599E-01 -.226E+00   0.825E-04 0.383E-05 0.862E-04
 
 
 POSITION                                       TOTAL-FORCE (eV/Angst)
 -----------------------------------------------------------------------------------
      7.63193     31.24454     -2.01787        -0.000535      0.004943     -0.003023
      6.45704     30.89848     -0.15852        -0.001582      0.000241      0.000857
      7.63518     25.57707      3.46558        -0.001685     -0.002367     -0.001681
      5.14433     14.54567      2.95675         0.004289      0.006485      0.001078
      6.30804      9.86753     -0.18202        -0.003690      0.002789      0.001067
      2.03017     26.24863     -1.77576        -0.002852     -0.003900      0.000752
      6.31587     14.20071      4.81846         0.002091      0.000379      0.000749
      5.13650      9.52469      1.68036         0.001978     -0.001725     -0.001746
      2.23151     14.52999      1.43704        -0.001216     -0.000406      0.001979
      0.86013     25.90186      0.08658        -0.000943     -0.008659     -0.000279
      2.02680     30.58134      3.22119         0.000422     -0.000575      0.000176
      2.22768      9.54861      3.19834         0.001297      0.001708     -0.000350
      6.46326     25.92022      1.60368         0.003041      0.000992      0.000820
      0.85429     30.92267      1.35949         0.001909      0.004885     -0.000182
      3.39873      9.20254      5.06036        -0.001462     -0.003160     -0.001351
      3.40064     14.87092     -0.42687        -0.002770      0.005032      0.001408
      5.85244      0.96117      0.82681        -0.001825      0.002907      0.003378
      7.04331      1.35554      2.99425         0.000125     -0.000416      0.001724
      7.05744     22.71804      1.65390        -0.001421     -0.000528     -0.003351
      5.73099     17.40331      4.76715        -0.000141     -0.001103      0.002049
      5.71665      6.66391     -0.12937         0.004822      0.001322     -0.000060
      2.64491     23.43789      0.43970        -0.001447      0.001014      0.001188
      6.92120     17.01278      2.59860        -0.000849      0.000898     -0.000154
      6.91241      7.05743      2.03588        -0.002059     -0.004631     -0.003630
      1.62073     17.33776     -0.78574         0.001747      0.001009     -0.003057
      1.45472     23.04353     -1.72794         0.000329      0.001854     -0.001408
      1.44395      1.03823      6.36848         0.001883      0.000586      0.002198
      2.80408      6.34223      3.24986        -0.002612      0.002219     -0.001126
      5.85861     23.10714      3.81800         0.003081     -0.002870     -0.001136
      2.63269      0.63841      4.20063        -0.002628      0.003403      0.002055
      1.61410      6.74090      5.41689         0.003283     -0.006213     -0.001314
      2.81291     17.73309      1.38070         0.000122      0.000939      0.003075
      5.85492      2.42487      0.58891         0.003145      0.002298      0.002424
      6.95107      2.81515      2.75424         0.000525     -0.001316     -0.001184
      6.96267     21.25770      1.88945         0.000971     -0.003397      0.001976
      5.82327     18.86335      4.52965        -0.000615     -0.000131     -0.002440
      5.81125      5.20413      0.10962        -0.001424     -0.000279      0.002396
      2.64986     21.97344      0.67420         0.000087     -0.002203     -0.002423
      6.91840     18.47715      2.36328        -0.000086      0.001822     -0.000214
      6.90827      5.59392      2.27468        -0.000278     -0.001257     -0.000506
      1.61750     18.80225     -1.02120        -0.000326      0.004313      0.003808
      1.55788     21.58329     -1.49314        -0.000141     -0.002123      0.000530
      1.54723      2.49765      6.13038        -0.003793      0.001284     -0.000337
      2.70066      4.88243      3.48736        -0.000355      0.003010      0.002943
      5.86483     21.64324      4.05482        -0.000482     -0.002290      0.000279
      2.63824      2.10249      3.96342         0.000226      0.003006      0.002753
      1.60888      5.27700      5.65401        -0.000809     -0.002909     -0.003521
      2.71008     19.19309      1.14555         0.003256     -0.001145      0.000418
      5.32799      2.28360      6.16963         0.000648      0.003293     -0.002073
      7.46251      3.70494      3.69110         0.000987     -0.004197      0.002671
      7.47470     20.36960      0.95124        -0.001791      0.001527      0.003566
      5.31114     20.39726     -1.29257         0.000488     -0.004050      0.002179
      5.29899      3.66843      5.93391        -0.000153      0.000791      0.001334
      3.17827     21.46862      1.85355        -0.000782      0.000385     -0.003634
      7.44502     18.98424      1.18414        -0.001133      0.003639     -0.000768
      7.43398      5.08957      3.45541        -0.002022      0.004428     -0.004442
      1.09041     18.66154      4.55973         0.001727     -0.001983      0.000323
      1.05332     20.04682      4.32758        -0.000044      0.007214      0.001475
      1.04165      4.03585      0.30774        -0.001643     -0.005640      0.004094
      3.20507      3.99007      2.54911         0.000997      0.005683     -0.002570
      5.33888     21.78231     -1.52599         0.000192      0.002977     -0.003994
      3.16623      2.60520      2.78298        -0.001470     -0.001384      0.001400
      1.07958      5.42058      0.07362         0.001931      0.002906     -0.001220
      3.21593     20.08336      2.08498         0.000818     -0.001881      0.001559
      6.77513     31.86986     -1.11162        -0.001804      0.000749      0.000202
      6.78208     24.94949      2.55729        -0.004272      0.002038     -0.001796
      6.00018     15.17144      3.86373        -0.000189     -0.003174      0.000668
      5.98919      8.89697      0.77179         0.004217      0.001407     -0.001262
      1.71479     25.27666     -0.82214         0.002250      0.003506      0.000869
      2.54689     15.49911      0.48037        -0.002808      0.001173      0.001499
      1.70961     31.55053      2.26533         0.001956     -0.001466     -0.000872
      2.54378      8.57707      4.15208        -0.001248     -0.000625      0.001266
      6.39075      3.30801      1.55359        -0.000352     -0.002972      0.003041
      6.40136     20.76205      3.08864         0.000467      0.003329     -0.003666
      6.38330     19.35863      3.32983        -0.001476     -0.002182      0.005579
      6.37257      4.71090      1.30978        -0.001161      0.004033     -0.003297
      2.12058     21.08979     -0.29366        -0.001244      0.004060     -0.003780
      2.14691     19.68621     -0.05363         0.000786     -0.005471      0.001094
      2.11021      2.98830      4.93005         0.001797     -0.006735      0.000071
      2.13763      4.39139      4.68765         0.001157      0.004782     -0.002276
      0.53371     28.73638     -2.65575        -0.001032     -0.004038     -0.003293
      7.95349     28.41172      0.72212         0.003026     -0.008591      0.001875
      3.72319     12.03759      2.31853        -0.000155     -0.000028      0.000548
      4.81805     12.36000     -1.06101         0.002635     -0.003769      0.002396
      3.62913      4.38877      1.63004        -0.000844      0.001163      0.000270
      7.82332     18.28000      0.44571         0.000446     -0.003293     -0.002864
      7.81187      5.79544      4.19263         0.000380     -0.000196      0.000348
      4.94884      1.57773      5.43310        -0.000078     -0.001290     -0.002314
      4.96000     22.48651     -0.78770         0.000020      0.000325      0.000554
      4.89039     19.99498     -0.37367        -0.001639     -0.003608      0.001056
      0.62974     20.44718      3.40898         0.001254      0.000746      0.001597
      0.61773      3.63699      1.22682        -0.000482     -0.002448     -0.000718
      7.89724     20.77193      0.03316         0.001438      0.001987     -0.002050
      0.70672      6.12834      0.81159        -0.000965     -0.000228      0.001984
      0.71748     17.95564      3.82009        -0.001340     -0.002091     -0.002341
      3.55114     22.17468      2.59312         0.000962      0.000617      0.001831
      3.63988     19.68275      3.00324         0.000893     -0.003490      0.000278
      4.87584      4.06903      5.01536        -0.000033      0.002905     -0.002035
      7.88342      3.30444      4.61081         0.000264     -0.003653     -0.001316
      3.53796      1.89785      2.04412         0.001888     -0.002307     -0.000861
      6.93150     14.91674     -1.05046        -0.002495      0.002386     -0.002243
      1.61126      9.47869      2.30701         0.003456     -0.000899      0.001158
      3.87116     15.28861     -1.30852        -0.000439      0.000697     -0.001186
      0.39007     25.48159      0.96721        -0.000743     -0.001348      0.000703
      2.64304     31.29981     -2.64845        -0.001288     -0.000311      0.001118
      3.86870      9.42868     -0.81943        -0.000312     -0.002165      0.000075
      8.10459     31.66507     -2.89695         0.000673      0.002047     -0.002849
      5.84707     25.84881      0.71245         0.001213     -0.001631     -0.001030
      0.38284     31.34050      0.47845         0.000093      0.001392     -0.000392
      4.67342     14.96565      2.07657        -0.002132      0.002875     -0.005526
      6.92441      9.14973      5.68712        -0.002595      0.000865     -0.000116
      5.83972     30.96847      0.73208         0.001212      0.000791      0.000152
      4.66536      9.10596      2.56108        -0.000613     -0.002599      0.002435
      1.61657     14.60255      2.32916         0.002409      0.000668     -0.000962
      2.64652     25.53281      4.09320        -0.002089      0.000683     -0.000332
      8.10647     25.80465     -2.41425        -0.000056     -0.004153      0.000711
      7.83574     29.98075     -1.62588        -0.001214     -0.002212     -0.000087
      7.10715     29.75408     -0.48286         0.000702      0.002019      0.001706
      7.83703     26.84131      3.07337         0.000074      0.004363     -0.001836
      4.93889     13.28233      3.34968         0.000495     -0.001597     -0.000355
      5.66117     11.01351      0.14333         0.000187     -0.000736     -0.002610
      1.37953     27.39233     -1.45055        -0.000518      0.001525     -0.003342
      5.66551     13.05649      4.49420        -0.002930     -0.001058      0.001549
      4.93476     10.78895      1.28820         0.000358      0.000806     -0.002075
      2.88034     13.38456      1.11400         0.001034      0.001021      0.002954
      0.65375     27.16545     -0.30562         0.003072      0.000605     -0.002387
      1.37709     29.43606      2.89914        -0.000780      0.000402      0.002152
      2.87809     10.69266      3.52320         0.000025      0.000617      0.000662
      7.11034     27.06607      1.92867         0.003318      0.000771     -0.003768
      0.64997     29.65985      1.75457         0.001533     -0.001965      0.000886
      3.60429     10.46625      4.66796        -0.000758      0.001784      0.000945
      3.60540     13.60800     -0.03195        -0.001029     -0.002050      0.002089
      6.47143      0.51261      2.01834         0.001249      0.001332      0.000622
      6.48266     23.55854      2.63031        -0.001671     -0.002675     -0.000706
      6.30200     16.56192      3.78929        -0.000756      0.003213     -0.000257
      6.28967      7.50630      0.84638         0.000774      0.002010      0.001622
      2.02101     23.88695     -0.74914         0.000946     -0.003285      0.001909
      2.24325     16.88927      0.40413        -0.000389      0.000800      0.000420
      2.01238      0.19268      5.39283         0.001284      0.000540      0.000545
      2.23741      7.18746      4.22689        -0.000530      0.000875      0.002104
      5.35099      0.17081      0.03248        -0.006527     -0.003237     -0.002225
      7.60283      0.89477      3.98937        -0.001517      0.000009      0.000156
      7.62045     23.18100      0.66173        -0.001272      0.000069      0.000571
      5.17160     17.58716     -0.99852         0.003129     -0.000788     -0.001631
      5.15590      6.47892      5.63699        -0.000333      0.002341      0.000649
      3.14384     24.22825      1.23561         0.002604      0.000666      0.002878
      7.42276     16.22407      1.80261         0.002037     -0.001605     -0.002297
      7.41792      7.84731      2.82809         0.005964      0.001970      0.003258
      1.12120     16.54712     -1.58114        -0.001183     -0.001092     -0.001845
      0.89169     22.85776      4.03932        -0.000658     -0.000363      0.000122
      0.87931      1.22648      0.60186         0.002278     -0.002174     -0.001525
      3.36741      6.80065      2.25578        -0.000303      0.001052      0.000792
      5.35023     24.54106     -2.14999        -0.005030      0.001918      0.005184
      3.12873     -0.15446      3.40541         0.004634     -0.000519     -0.004774
      1.11537      8.17868     -0.54894        -0.005030      0.004903      0.005165
      3.37804     17.27328      2.37307        -0.003634     -0.000160      0.001276
 -----------------------------------------------------------------------------------
    total drift:                               -0.007790      0.022904     -0.030996


--------------------------------------------------------------------------------------------------------



  FREE ENERGIE OF THE ION-ELECTRON SYSTEM (eV)
  ---------------------------------------------------
  free  energy   TOTEN  =     -1163.51990571 eV

  energy  without entropy=    -1163.51990571  energy(sigma->0) =    -1163.51990571
 


--------------------------------------------------------------------------------------------------------


    POTLOK:  cpu time    0.1250: real time    0.1250


--------------------------------------------------------------------------------------------------------




--------------------------------------------------------------------------------------------------------


  
 reached required accuracy - stopping structural energy minimisation
 writing wavefunctions
     LOOP+:  cpu time  398.5405: real time  403.4716
    4ORBIT:  cpu time    0.0000: real time    0.0000

 total amount of memory used by VASP MPI-rank0    97635. kBytes
=======================================================================

   base      :      30000. kBytes
   nonlr-proj:       6294. kBytes
   fftplans  :       5843. kBytes
   grid      :      10227. kBytes
   one-center:        606. kBytes
   wavefun   :      44665. kBytes
 
  
  
 General timing and accounting informations for this job:
 ========================================================
  
                  Total CPU time used (sec):      460.912
                            User time (sec):      420.284
                          System time (sec):       40.628
                         Elapsed time (sec):      466.781
  
                   Maximum memory used (kb):     1037656.
                   Average memory used (kb):           0.
  
                          Minor page faults:       373766
                          Major page faults:            5
                 Voluntary context switches:        10873
