       N       E                     dE             d eps       ncg     rms          rms(c)
DAV:   1     0.491012422260E+04    0.49101E+04   -0.29817E+05  9216   0.153E+03
DAV:   2    -0.572717512011E+03   -0.54828E+04   -0.52824E+04 12064   0.341E+02
DAV:   3    -0.127036553934E+04   -0.69765E+03   -0.69011E+03 11008   0.130E+02
DAV:   4    -0.129459320170E+04   -0.24228E+02   -0.24047E+02 12352   0.307E+01
DAV:   5    -0.129528954161E+04   -0.69634E+00   -0.69492E+00 12512   0.472E+00    0.850E+01
DAV:   6    -0.149636917807E+04   -0.20108E+03   -0.23890E+03 14016   0.917E+01    0.214E+02
DAV:   7    -0.140686547548E+04    0.89504E+02   -0.20570E+02 10976   0.316E+01    0.140E+02
DAV:   8    -0.116713046931E+04    0.23974E+03   -0.56878E+02 12992   0.101E+02    0.362E+01
DAV:   9    -0.118340966974E+04   -0.16279E+02   -0.54059E+02 13248   0.486E+01    0.589E+01
DAV:  10    -0.116329733444E+04    0.20112E+02   -0.41698E+02 12512   0.210E+01    0.242E+01
DAV:  11    -0.118050478345E+04   -0.17207E+02   -0.17244E+02 13216   0.253E+01    0.574E+01
DAV:  12    -0.117738375376E+04    0.31210E+01   -0.34849E+02 13120   0.291E+01    0.416E+01
DAV:  13    -0.117096614300E+04    0.64176E+01   -0.10081E+02 12736   0.213E+01    0.372E+01
DAV:  14    -0.116604168877E+04    0.49245E+01   -0.20312E+01 13088   0.149E+01    0.151E+01
DAV:  15    -0.116652120526E+04   -0.47952E+00   -0.62679E+00 13568   0.725E+00    0.164E+01
DAV:  16    -0.116687412427E+04   -0.35292E+00   -0.29654E+00 13056   0.657E+00    0.135E+01
DAV:  17    -0.116689466099E+04   -0.20537E-01   -0.91345E-01 12960   0.448E+00    0.881E+00
DAV:  18    -0.116725186960E+04   -0.35721E+00   -0.26216E-01 12896   0.217E+00    0.663E+00
DAV:  19    -0.116754288355E+04   -0.29101E+00   -0.33996E-01 13344   0.358E+00    0.424E+00
DAV:  20    -0.116768202675E+04   -0.13914E+00   -0.37972E-01 13824   0.375E+00    0.277E+00
DAV:  21    -0.116768964510E+04   -0.76184E-02   -0.31570E-01 13344   0.261E+00    0.176E+00
DAV:  22    -0.116766700314E+04    0.22642E-01   -0.13106E-01 13152   0.170E+00    0.108E+00
DAV:  23    -0.116767297321E+04   -0.59701E-02   -0.64061E-02 15104   0.150E+00    0.642E-01
DAV:  24    -0.116770297132E+04   -0.29998E-01   -0.78710E-02 13152   0.115E+00    0.458E-01
DAV:  25    -0.116775909021E+04   -0.56119E-01   -0.55136E-02 12672   0.610E-01    0.686E-01
DAV:  26    -0.116776791798E+04   -0.88278E-02   -0.95971E-03 11776   0.250E-01    0.443E-01
DAV:  27    -0.116780181213E+04   -0.33894E-01   -0.28629E-03 11264   0.142E-01    0.402E-01
DAV:  28    -0.116790673953E+04   -0.10493E+00   -0.18308E-02 11008   0.408E-01    0.420E-01
DAV:  29    -0.116793957719E+04   -0.32838E-01   -0.59108E-03 12032   0.199E-01    0.206E-01
DAV:  30    -0.116795481133E+04   -0.15234E-01   -0.12576E-03 12416   0.831E-02    0.214E-01
DAV:  31    -0.116798652482E+04   -0.31713E-01   -0.20136E-03 11264   0.107E-01    0.154E-01
DAV:  32    -0.116801773958E+04   -0.31215E-01   -0.30616E-03 11232   0.945E-02    0.107E-01
DAV:  33    -0.116802516374E+04   -0.74242E-02   -0.40567E-04 12544   0.450E-02    0.870E-02
DAV:  34    -0.116802925608E+04   -0.40923E-02   -0.19047E-04 11616   0.399E-02    0.767E-02
DAV:  35    -0.116803356178E+04   -0.43057E-02   -0.34423E-04 11424   0.425E-02    0.609E-02
DAV:  36    -0.116803637434E+04   -0.28126E-02   -0.26521E-04 11264   0.308E-02    0.481E-02
DAV:  37    -0.116803756696E+04   -0.11926E-02   -0.96673E-05 11264   0.231E-02    0.328E-02
DAV:  38    -0.116803799117E+04   -0.42421E-03   -0.44255E-05 11456   0.154E-02    0.194E-02
DAV:  39    -0.116803812934E+04   -0.13817E-03   -0.14224E-05 11104   0.110E-02    0.114E-02
DAV:  40    -0.116803820236E+04   -0.73024E-04   -0.71766E-06 10432   0.831E-03    0.818E-03
DAV:  41    -0.116803826792E+04   -0.65560E-04   -0.63932E-06 10208   0.680E-03    0.635E-03
DAV:  42    -0.116803830482E+04   -0.36900E-04   -0.27030E-06  8992   0.292E-03    0.400E-03
DAV:  43    -0.116803832957E+04   -0.24746E-04   -0.16380E-06  8448   0.277E-03    0.219E-03
DAV:  44    -0.116803835068E+04   -0.21113E-04   -0.20804E-06  8864   0.266E-03    0.132E-03
DAV:  45    -0.116803836029E+04   -0.96095E-05   -0.69418E-07  7328   0.103E-03    0.111E-03
DAV:  46    -0.116803836664E+04   -0.63416E-05   -0.54571E-07  7232   0.798E-04    0.832E-04
DAV:  47    -0.116803836848E+04   -0.18475E-05   -0.15784E-07  6528   0.901E-04    0.655E-04
DAV:  48    -0.116803836897E+04   -0.48210E-06   -0.85324E-08  6496   0.582E-04
   1 F= -.11796746E+04 E0= -.11796697E+04  d E =-.117967E+04  mag=     0.0009
