 vasp.5.4.4.18Apr17-6-g9f103f2a35 (build May 22 2020 17:00:04) complex          
  
 executed on           IFC15_impi date 2020.09.22  10:57:04
 running on  128 total cores
 distrk:  each k-point on  128 cores,    1 groups
 distr:  one band on NCORES_PER_BAND=   4 cores,   32 groups


--------------------------------------------------------------------------------------------------------


 INCAR:
 POTCAR:    PAW_PBE C 08Apr2002                   
 POTCAR:    PAW_PBE Co 02Aug2007                  
 POTCAR:    PAW_PBE H 15Jun2001                   
 POTCAR:    PAW_PBE N 08Apr2002                   
 POTCAR:    PAW_PBE O 08Apr2002                   

 ----------------------------------------------------------------------------- 
|                                                                             |
|           W    W    AA    RRRRR   N    N  II  N    N   GGGG   !!!           |
|           W    W   A  A   R    R  NN   N  II  NN   N  G    G  !!!           |
|           W    W  A    A  R    R  N N  N  II  N N  N  G       !!!           |
|           W WW W  AAAAAA  RRRRR   N  N N  II  N  N N  G  GGG   !            |
|           WW  WW  A    A  R   R   N   NN  II  N   NN  G    G                |
|           W    W  A    A  R    R  N    N  II  N    N   GGGG   !!!           |
|                                                                             |
|      For optimal performance we recommend to set                            |
|        NCORE= 4 - approx SQRT( number of cores)                             |
|      NCORE specifies how many cores store one orbital (NPAR=cpu/NCORE).     |
|      This setting can  greatly improve the performance of VASP for DFT.     |
|      The default,   NCORE=1            might be grossly inefficient         |
|      on modern multi-core architectures or massively parallel machines.     |
|      Do your own testing !!!!                                               |
|      Unfortunately you need to use the default for GW and RPA calculations. |
|      (for HF NCORE is supported but not extensively tested yet)             |
|                                                                             |
 ----------------------------------------------------------------------------- 

 POTCAR:    PAW_PBE C 08Apr2002                   
   VRHFIN =C: s2p2                                                              
   LEXCH  = PE                                                                  
   EATOM  =   147.1560 eV,   10.8157 Ry                                         
                                                                                
   TITEL  = PAW_PBE C 08Apr2002                                                 
   LULTRA =        F    use ultrasoft PP ?                                      
   IUNSCR =        1    unscreen: 0-lin 1-nonlin 2-no                           
   RPACOR =    1.200    partial core radius                                     
   POMASS =   12.011; ZVAL   =    4.000    mass and valenz                      
   RCORE  =    1.500    outmost cutoff radius                                   
   RWIGS  =    1.630; RWIGS  =    0.863    wigner-seitz radius (au A)           
   ENMAX  =  400.000; ENMIN  =  300.000 eV                                      
   ICORE  =        2    local potential                                         
   LCOR   =        T    correct aug charges                                     
   LPAW   =        T    paw PP                                                  
   EAUG   =  644.873                                                            
   DEXC   =    0.000                                                            
   RMAX   =    1.529    core radius for proj-oper                               
   RAUG   =    1.300    factor for augmentation sphere                          
   RDEP   =    1.501    radius for radial grids                                 
   RDEPT  =    1.300    core radius for aug-charge                              
                                                                                
   Atomic configuration                                                         
    4 entries                                                                   
     n  l   j            E        occ.                                          
     1  0  0.50      -273.3789   2.0000                                         
     2  0  0.50       -13.7508   2.0000                                         
     2  1  0.50        -5.2854   2.0000                                         
     3  2  1.50        -5.4423   0.0000                                         
   Description                                                                  
     l       E           TYP  RCUT    TYP  RCUT                                 
     0    -13.7508458     23  1.200                                             
     0     -8.2022199     23  1.200                                             
     1     -5.2854383     23  1.500                                             
     1     34.0145650     23  1.500                                             
     2     -5.4423304      7  1.500                                             
  local pseudopotential read in
  partial core-charges read in
  partial kinetic energy density read in
  atomic valenz-charges read in
  non local Contribution for L=           0  read in
    real space projection operators read in
  non local Contribution for L=           0  read in
    real space projection operators read in
  non local Contribution for L=           1  read in
    real space projection operators read in
  non local Contribution for L=           1  read in
    real space projection operators read in
    PAW grid and wavefunctions read in
 
   number of l-projection  operators is LMAX  =           4
   number of lm-projection operators is LMMAX =           8
 
 POTCAR:    PAW_PBE Co 02Aug2007                  
   VRHFIN =Co: d8 s1                                                            
   LEXCH  = PE                                                                  
   EATOM  =   813.3670 eV,   59.7808 Ry                                         
                                                                                
   TITEL  = PAW_PBE Co 02Aug2007                                                
   LULTRA =        F    use ultrasoft PP ?                                      
   IUNSCR =        1    unscreen: 0-lin 1-nonlin 2-no                           
   RPACOR =    2.000    partial core radius                                     
   POMASS =   58.933; ZVAL   =    9.000    mass and valenz                      
   RCORE  =    2.300    outmost cutoff radius                                   
   RWIGS  =    2.460; RWIGS  =    1.302    wigner-seitz radius (au A)           
   ENMAX  =  267.968; ENMIN  =  200.976 eV                                      
   RCLOC  =    1.203    cutoff for local pot                                    
   LCOR   =        T    correct aug charges                                     
   LPAW   =        T    paw PP                                                  
   EAUG   =  477.818                                                            
   DEXC   =    0.000                                                            
   RMAX   =    2.360    core radius for proj-oper                               
   RAUG   =    1.300    factor for augmentation sphere                          
   RDEP   =    2.393    radius for radial grids                                 
   RDEPT  =    1.864    core radius for aug-charge                              
                                                                                
   Atomic configuration                                                         
    9 entries                                                                   
     n  l   j            E        occ.                                          
     1  0  0.50     -7587.6674   2.0000                                         
     2  0  0.50      -893.6084   2.0000                                         
     2  1  1.50      -764.5805   6.0000                                         
     3  0  0.50       -97.5973   2.0000                                         
     3  1  1.50       -60.9648   6.0000                                         
     3  2  2.50        -4.2382   8.0000                                         
     4  0  0.50        -4.3746   1.0000                                         
     4  1  1.50        -4.0817   0.0000                                         
     4  3  2.50        -1.3606   0.0000                                         
   Description                                                                  
     l       E           TYP  RCUT    TYP  RCUT                                 
     2     -4.2382362     23  2.300                                             
     2     -5.5988188     23  2.300                                             
     0     -4.3745797     23  2.300                                             
     0      5.7660125     23  2.300                                             
     1     -2.7211652     23  2.300                                             
     1     16.9860234     23  2.300                                             
  local pseudopotential read in
  partial core-charges read in
  partial kinetic energy density read in
  atomic valenz-charges read in
  non local Contribution for L=           2  read in
    real space projection operators read in
  non local Contribution for L=           2  read in
    real space projection operators read in
  non local Contribution for L=           0  read in
    real space projection operators read in
  non local Contribution for L=           0  read in
    real space projection operators read in
  non local Contribution for L=           1  read in
    real space projection operators read in
  non local Contribution for L=           1  read in
    real space projection operators read in
    PAW grid and wavefunctions read in
 
   number of l-projection  operators is LMAX  =           6
   number of lm-projection operators is LMMAX =          18
 
 POTCAR:    PAW_PBE H 15Jun2001                   
   VRHFIN =H: ultrasoft test                                                    
   LEXCH  = PE                                                                  
   EATOM  =    12.4884 eV,    0.9179 Ry                                         
                                                                                
   TITEL  = PAW_PBE H 15Jun2001                                                 
   LULTRA =        F    use ultrasoft PP ?                                      
   IUNSCR =        0    unscreen: 0-lin 1-nonlin 2-no                           
   RPACOR =    0.000    partial core radius                                     
   POMASS =    1.000; ZVAL   =    1.000    mass and valenz                      
   RCORE  =    1.100    outmost cutoff radius                                   
   RWIGS  =    0.700; RWIGS  =    0.370    wigner-seitz radius (au A)           
   ENMAX  =  250.000; ENMIN  =  200.000 eV                                      
   RCLOC  =    0.701    cutoff for local pot                                    
   LCOR   =        T    correct aug charges                                     
   LPAW   =        T    paw PP                                                  
   EAUG   =  400.000                                                            
   RMAX   =    1.123    core radius for proj-oper                               
   RAUG   =    1.200    factor for augmentation sphere                          
   RDEP   =    1.112    radius for radial grids                                 
   RDEPT  =    0.926    core radius for aug-charge                              
                                                                                
   Atomic configuration                                                         
    2 entries                                                                   
     n  l   j            E        occ.                                          
     1  0  0.50        -6.4927   1.0000                                         
     2  1  0.50        -3.4015   0.0000                                         
   Description                                                                  
     l       E           TYP  RCUT    TYP  RCUT                                 
     0     -6.4927494     23  1.100                                             
     0      6.8029130     23  1.100                                             
     1     -4.0817478     23  1.100                                             
  local pseudopotential read in
  atomic valenz-charges read in
  non local Contribution for L=           0  read in
    real space projection operators read in
  non local Contribution for L=           0  read in
    real space projection operators read in
  non local Contribution for L=           1  read in
    real space projection operators read in
    PAW grid and wavefunctions read in
 
   number of l-projection  operators is LMAX  =           3
   number of lm-projection operators is LMMAX =           5
 
 POTCAR:    PAW_PBE N 08Apr2002                   
   VRHFIN =N: s2p3                                                              
   LEXCH  = PE                                                                  
   EATOM  =   264.5486 eV,   19.4438 Ry                                         
                                                                                
   TITEL  = PAW_PBE N 08Apr2002                                                 
   LULTRA =        F    use ultrasoft PP ?                                      
   IUNSCR =        1    unscreen: 0-lin 1-nonlin 2-no                           
   RPACOR =    1.200    partial core radius                                     
   POMASS =   14.001; ZVAL   =    5.000    mass and valenz                      
   RCORE  =    1.500    outmost cutoff radius                                   
   RWIGS  =    1.400; RWIGS  =    0.741    wigner-seitz radius (au A)           
   ENMAX  =  400.000; ENMIN  =  300.000 eV                                      
   ICORE  =        2    local potential                                         
   LCOR   =        T    correct aug charges                                     
   LPAW   =        T    paw PP                                                  
   EAUG   =  627.112                                                            
   DEXC   =    0.000                                                            
   RMAX   =    1.529    core radius for proj-oper                               
   RAUG   =    1.300    factor for augmentation sphere                          
   RDEP   =    1.514    radius for radial grids                                 
   RDEPT  =    1.338    core radius for aug-charge                              
                                                                                
   Atomic configuration                                                         
    4 entries                                                                   
     n  l   j            E        occ.                                          
     1  0  0.50      -384.7179   2.0000                                         
     2  0  0.50       -18.5828   2.0000                                         
     2  1  0.50        -7.0898   3.0000                                         
     3  2  1.50        -6.8029   0.0000                                         
   Description                                                                  
     l       E           TYP  RCUT    TYP  RCUT                                 
     0    -18.5828119     23  1.200                                             
     0    -13.5018863     23  1.200                                             
     1     -7.0897853     23  1.500                                             
     1      9.5240782     23  1.500                                             
     2     -6.8029130      7  1.500                                             
  local pseudopotential read in
  partial core-charges read in
  partial kinetic energy density read in
  atomic valenz-charges read in
  non local Contribution for L=           0  read in
    real space projection operators read in
  non local Contribution for L=           0  read in
    real space projection operators read in
  non local Contribution for L=           1  read in
    real space projection operators read in
  non local Contribution for L=           1  read in
    real space projection operators read in
    PAW grid and wavefunctions read in
 
   number of l-projection  operators is LMAX  =           4
   number of lm-projection operators is LMMAX =           8
 
 POTCAR:    PAW_PBE O 08Apr2002                   
   VRHFIN =O: s2p4                                                              
   LEXCH  = PE                                                                  
   EATOM  =   432.3788 eV,   31.7789 Ry                                         
                                                                                
   TITEL  = PAW_PBE O 08Apr2002                                                 
   LULTRA =        F    use ultrasoft PP ?                                      
   IUNSCR =        1    unscreen: 0-lin 1-nonlin 2-no                           
   RPACOR =    1.200    partial core radius                                     
   POMASS =   16.000; ZVAL   =    6.000    mass and valenz                      
   RCORE  =    1.520    outmost cutoff radius                                   
   RWIGS  =    1.550; RWIGS  =    0.820    wigner-seitz radius (au A)           
   ENMAX  =  400.000; ENMIN  =  300.000 eV                                      
   ICORE  =        2    local potential                                         
   LCOR   =        T    correct aug charges                                     
   LPAW   =        T    paw PP                                                  
   EAUG   =  605.392                                                            
   DEXC   =    0.000                                                            
   RMAX   =    1.553    core radius for proj-oper                               
   RAUG   =    1.300    factor for augmentation sphere                          
   RDEP   =    1.550    radius for radial grids                                 
   RDEPT  =    1.329    core radius for aug-charge                              
                                                                                
   Atomic configuration                                                         
    4 entries                                                                   
     n  l   j            E        occ.                                          
     1  0  0.50      -514.6923   2.0000                                         
     2  0  0.50       -23.9615   2.0000                                         
     2  1  0.50        -9.0305   4.0000                                         
     3  2  1.50        -9.5241   0.0000                                         
   Description                                                                  
     l       E           TYP  RCUT    TYP  RCUT                                 
     0    -23.9615318     23  1.200                                             
     0     -9.5240782     23  1.200                                             
     1     -9.0304911     23  1.520                                             
     1      8.1634956     23  1.520                                             
     2     -9.5240782      7  1.500                                             
  local pseudopotential read in
  partial core-charges read in
  partial kinetic energy density read in
  kinetic energy density of atom read in
  atomic valenz-charges read in
  non local Contribution for L=           0  read in
    real space projection operators read in
  non local Contribution for L=           0  read in
    real space projection operators read in
  non local Contribution for L=           1  read in
    real space projection operators read in
  non local Contribution for L=           1  read in
    real space projection operators read in
    PAW grid and wavefunctions read in
 
   number of l-projection  operators is LMAX  =           4
   number of lm-projection operators is LMMAX =           8
 
 Optimization of the real space projectors (new method)

 maximal supplied QI-value         = 25.13
 optimisation between [QCUT,QGAM] = [ 12.32, 24.88] = [ 42.47,173.37] Ry 
 Optimized for a Real-space Cutoff    1.06 Angstroem

   l    n(q)    QCUT    max X(q) W(low)/X(q) W(high)/X(q)  e(spline) 
   0      8    12.315   115.676    0.34E-03    0.18E-03    0.23E-06
   0      8    12.315    87.132    0.34E-03    0.18E-03    0.22E-06
   1      7    12.315     4.429    0.45E-03    0.12E-03    0.18E-06
   1      7    12.315     2.733    0.35E-03    0.97E-04    0.15E-06
 Optimization of the real space projectors (new method)

 maximal supplied QI-value         = 16.25
 optimisation between [QCUT,QGAM] = [ 12.51, 25.03] = [ 43.85,175.40] Ry 
 Optimized for a Real-space Cutoff    1.31 Angstroem

   l    n(q)    QCUT    max X(q) W(low)/X(q) W(high)/X(q)  e(spline) 
   2      9    12.514    65.824    0.30E-03    0.46E-03    0.43E-06
   2      9    12.514    61.429    0.31E-03    0.46E-03    0.44E-06
   0     10    12.514    56.174    0.90E-04    0.33E-03    0.30E-06
   0     10    12.514    31.263    0.81E-04    0.30E-03    0.28E-06
   1      9    12.514    19.828    0.38E-03    0.65E-04    0.24E-06
   1      9    12.514    15.139    0.32E-03    0.60E-04    0.20E-06
 Optimization of the real space projectors (new method)

 maximal supplied QI-value         = 34.20
 optimisation between [QCUT,QGAM] = [ 12.31, 24.97] = [ 42.46,174.58] Ry 
 Optimized for a Real-space Cutoff    1.00 Angstroem

   l    n(q)    QCUT    max X(q) W(low)/X(q) W(high)/X(q)  e(spline) 
   0      7    12.313    19.460    0.14E-03    0.42E-03    0.16E-06
   0      7    12.313    12.209    0.12E-03    0.40E-03    0.16E-06
   1      7    12.313     4.655    0.33E-03    0.59E-03    0.89E-07
 Optimization of the real space projectors (new method)

 maximal supplied QI-value         = 25.13
 optimisation between [QCUT,QGAM] = [ 12.32, 24.88] = [ 42.47,173.37] Ry 
 Optimized for a Real-space Cutoff    1.20 Angstroem

   l    n(q)    QCUT    max X(q) W(low)/X(q) W(high)/X(q)  e(spline) 
   0      9    12.315    79.467    0.14E-03    0.22E-04    0.37E-06
   0      9    12.315    66.151    0.14E-03    0.23E-04    0.36E-06
   1      8    12.315    22.077    0.30E-03    0.54E-03    0.45E-06
   1      8    12.315    15.894    0.30E-03    0.55E-03    0.45E-06
 Optimization of the real space projectors (new method)

 maximal supplied QI-value         = 24.76
 optimisation between [QCUT,QGAM] = [ 12.38, 25.00] = [ 42.90,175.06] Ry 
 Optimized for a Real-space Cutoff    1.13 Angstroem

   l    n(q)    QCUT    max X(q) W(low)/X(q) W(high)/X(q)  e(spline) 
   0      8    12.378    20.381    0.16E-03    0.54E-05    0.27E-06
   0      8    12.378    15.268    0.17E-03    0.61E-05    0.29E-06
   1      8    12.378     5.964    0.38E-03    0.23E-03    0.28E-06
   1      8    12.378     5.382    0.33E-03    0.20E-03    0.25E-06
  PAW_PBE C 08Apr2002                   :
 energy of atom  1       EATOM= -147.1560
 kinetic energy error for atom=    0.0057 (will be added to EATOM!!)
  PAW_PBE Co 02Aug2007                  :
 energy of atom  2       EATOM= -813.3670
 kinetic energy error for atom=    0.0018 (will be added to EATOM!!)
  PAW_PBE H 15Jun2001                   :
 energy of atom  3       EATOM=  -12.4884
 kinetic energy error for atom=    0.0004 (will be added to EATOM!!)
  PAW_PBE N 08Apr2002                   :
 energy of atom  4       EATOM= -264.5486
 kinetic energy error for atom=    0.0103 (will be added to EATOM!!)
  PAW_PBE O 08Apr2002                   :
 energy of atom  5       EATOM= -432.3788
 kinetic energy error for atom=    0.0168 (will be added to EATOM!!)
 
 
 POSCAR: Co_B                                    
  positions in direct lattice
  velocities in cartesian coordinates
 exchange correlation table for  LEXCH =        8
   RHO(1)=    0.500       N(1)  =     2000
   RHO(2)=  100.500       N(2)  =     4000
 


--------------------------------------------------------------------------------------------------------


 ion  position               nearest neighbor table
   1  0.919  0.961  0.130- 107 1.08 117 1.35  65 1.40
   2  0.827  0.954  0.423- 112 1.09 118 1.35  65 1.40
   3  0.920  0.800  0.920- 116 1.08 119 1.35  66 1.40
   4  0.582  0.461  0.629- 110 1.08 120 1.35  67 1.40
   5  0.673  0.307  0.127- 111 1.09 121 1.35  68 1.40
   6  0.174  0.808  0.129- 115 1.09 122 1.35  69 1.40
   7  0.674  0.454  0.925- 101 1.09 123 1.35  67 1.40
   8  0.580  0.300  0.420- 113 1.08 124 1.35  68 1.40
   9  0.328  0.454  0.422- 114 1.09 125 1.35  70 1.40
  10  0.081  0.800  0.422- 104 1.08 126 1.35  69 1.40
  11  0.173  0.954  0.927- 105 1.09 127 1.35  71 1.40
  12  0.326  0.307  0.623- 102 1.09 128 1.35  72 1.40
  13  0.827  0.807  0.624- 108 1.09 129 1.35  66 1.40
  14  0.081  0.961  0.631- 109 1.08 130 1.35  71 1.40
  15  0.418  0.300  0.919- 106 1.08 131 1.35  72 1.40
  16  0.420  0.461  0.128- 103 1.08 132 1.35  70 1.40
  17  0.747  0.034  0.116- 141 1.23 133 1.42  33 1.48
  18  0.859  0.053  0.448- 142 1.23 133 1.41  34 1.48
  19  0.860  0.708  0.602- 143 1.23 134 1.41  35 1.48
  20  0.642  0.553  0.948- 144 1.23 135 1.41  36 1.48
  21  0.639  0.208  0.103- 145 1.23 136 1.41  37 1.48
  22  0.253  0.727  0.435- 146 1.23 137 1.42  38 1.48
  23  0.753  0.534  0.618- 147 1.23 135 1.42  39 1.48
  24  0.751  0.227  0.434- 148 1.23 136 1.42  40 1.48
  25  0.250  0.535  0.115- 149 1.23 138 1.42  41 1.48
  26  0.142  0.708  0.103- 150 1.23 137 1.41  42 1.48
  27  0.140  0.053  0.948- 151 1.23 139 1.41  43 1.48
  28  0.358  0.208  0.601- 152 1.23 140 1.41  44 1.48
  29  0.749  0.727  0.932- 153 1.23 134 1.42  45 1.48
  30  0.252  0.034  0.620- 154 1.23 139 1.42  46 1.48
  31  0.247  0.227  0.930- 155 1.23 140 1.42  47 1.48
  32  0.362  0.553  0.446- 156 1.23 138 1.41  48 1.48
  33  0.719  0.079  0.118-  49 1.39  73 1.42  17 1.48
  34  0.830  0.097  0.441-  50 1.39  73 1.42  18 1.48
  35  0.832  0.663  0.610-  51 1.39  74 1.42  19 1.48
  36  0.670  0.597  0.940-  52 1.39  75 1.42  20 1.48
  37  0.668  0.163  0.110-  53 1.39  76 1.42  21 1.48
  38  0.281  0.682  0.434-  54 1.39  77 1.42  22 1.48
  39  0.780  0.579  0.619-  55 1.39  75 1.42  23 1.48
  40  0.779  0.182  0.433-  56 1.39  76 1.42  24 1.48
  41  0.222  0.579  0.116-  57 1.39  78 1.42  25 1.48
  42  0.170  0.664  0.109-  58 1.39  77 1.42  26 1.48
  43  0.169  0.098  0.940-  59 1.39  79 1.42  27 1.48
  44  0.330  0.163  0.609-  60 1.39  80 1.42  28 1.48
  45  0.722  0.682  0.931-  61 1.39  74 1.42  29 1.48
  46  0.279  0.079  0.619-  62 1.39  79 1.42  30 1.48
  47  0.219  0.182  0.930-  63 1.39  80 1.42  31 1.48
  48  0.333  0.598  0.440-  64 1.39  78 1.42  32 1.48
  49  0.652  0.091  0.959-  88 1.09  33 1.39  53 1.40
  50  0.872  0.128  0.596-  99 1.09  34 1.39  56 1.41
  51  0.873  0.633  0.457-  93 1.09  35 1.39  55 1.40
  52  0.629  0.628  0.094-  90 1.09  36 1.39  61 1.40
  53  0.626  0.133  0.955-  98 1.09  37 1.39  49 1.40
  54  0.348  0.670  0.592-  96 1.09  38 1.39  64 1.41
  55  0.847  0.591  0.461-  86 1.09  39 1.39  51 1.40
  56  0.846  0.170  0.592-  87 1.09  40 1.39  50 1.41
  57  0.155  0.591  0.958-  95 1.09  41 1.39  58 1.40
  58  0.129  0.634  0.954-  91 1.09  42 1.39  57 1.40
  59  0.127  0.128  0.093-  92 1.09  43 1.39  63 1.41
  60  0.371  0.133  0.456-  85 1.09  44 1.39  62 1.40
  61  0.655  0.670  0.089-  89 1.09  45 1.39  52 1.40
  62  0.346  0.091  0.461- 100 1.09  46 1.39  60 1.40
  63  0.153  0.170  0.088-  94 1.09  47 1.39  59 1.41
  64  0.374  0.628  0.595-  97 1.09  48 1.39  54 1.41
  65  0.848  0.982  0.281-   1 1.40   2 1.40 133 1.42
  66  0.848  0.779  0.768-   3 1.40  13 1.40 134 1.42
  67  0.653  0.482  0.782-   4 1.40   7 1.40 135 1.42
  68  0.651  0.279  0.269-   8 1.40   5 1.40 136 1.42
  69  0.153  0.779  0.271-  10 1.40   6 1.40 137 1.42
  70  0.349  0.482  0.279-  16 1.40   9 1.40 138 1.42
  71  0.152  0.982  0.783-  14 1.40  11 1.40 139 1.42
  72  0.347  0.279  0.766-  15 1.40  12 1.40 140 1.42
  73  0.762  0.109  0.278-  33 1.42  34 1.42  76 1.43
  74  0.764  0.652  0.773-  45 1.42  35 1.42  75 1.43
  75  0.738  0.609  0.778-  39 1.42  36 1.42  74 1.43
  76  0.736  0.152  0.273-  40 1.42  37 1.42  73 1.43
  77  0.239  0.652  0.273-  38 1.42  42 1.42  78 1.43
  78  0.265  0.609  0.277-  41 1.42  48 1.42  77 1.43
  79  0.236  0.109  0.777-  46 1.42  43 1.42  80 1.43
  80  0.262  0.152  0.772-  47 1.42  44 1.42  79 1.43
  81  0.037  0.881  0.027- 117 1.96 119 1.96 122 1.96 127 1.96
  82  0.963  0.880  0.525- 130 1.96 126 1.96 129 1.96 118 1.96
  83  0.464  0.380  0.523- 124 1.96 120 1.96 128 1.96 125 1.96
  84  0.537  0.380  0.025- 132 1.96 131 1.96 121 1.96 123 1.96
  85  0.423  0.143  0.333-  60 1.09
  86  0.878  0.567  0.341-  55 1.09
  87  0.877  0.194  0.713-  56 1.09
  88  0.621  0.067  0.838-  49 1.09
  89  0.624  0.694  0.210-  61 1.09
  90  0.578  0.618  0.217-  52 1.09
  91  0.077  0.643  0.830-  58 1.09
  92  0.075  0.119  0.216-  59 1.09
  93  0.925  0.643  0.333-  51 1.09
  94  0.121  0.194  0.207-  63 1.09
  95  0.124  0.567  0.836-  57 1.09
  96  0.379  0.694  0.714-  54 1.09
  97  0.427  0.618  0.719-  64 1.09
  98  0.574  0.143  0.831-  53 1.09
  99  0.924  0.118  0.720-  50 1.09
 100  0.377  0.067  0.342-  62 1.09
 101  0.722  0.458  0.071-   7 1.09
 102  0.278  0.303  0.477-  12 1.09
 103  0.456  0.472  0.992-  16 1.08
 104  0.046  0.788  0.558-  10 1.08
 105  0.221  0.958  0.072-  11 1.09
 106  0.454  0.289  0.056-  15 1.08
 107  0.955  0.973  0.994-   1 1.08
 108  0.779  0.803  0.479-  13 1.09
 109  0.045  0.972  0.493-  14 1.08
 110  0.546  0.472  0.492-   4 1.08
 111  0.721  0.303  0.983-   5 1.09
 112  0.779  0.957  0.567-   2 1.09
 113  0.544  0.288  0.556-   8 1.08
 114  0.280  0.458  0.566-   9 1.09
 115  0.222  0.804  0.985-   6 1.09
 116  0.955  0.789  0.058-   3 1.08
 117  0.941  0.923  0.180-   1 1.35 118 1.37  81 1.96
 118  0.884  0.918  0.359-   2 1.35 117 1.37  82 1.96
 119  0.941  0.838  0.870-   3 1.35 129 1.37  81 1.96
 120  0.560  0.423  0.680-   4 1.35 123 1.37  83 1.96
 121  0.616  0.343  0.190-   5 1.35 124 1.37  84 1.96
 122  0.117  0.843  0.192-   6 1.35 126 1.37  81 1.96
 123  0.617  0.418  0.861-   7 1.35 120 1.37  84 1.96
 124  0.559  0.338  0.370-   8 1.35 121 1.37  83 1.96
 125  0.384  0.418  0.358-   9 1.35 132 1.37  83 1.96
 126  0.060  0.838  0.372-  10 1.35 122 1.37  82 1.96
 127  0.116  0.918  0.863-  11 1.35 130 1.37  81 1.96
 128  0.384  0.343  0.687-  12 1.35 131 1.37  83 1.96
 129  0.884  0.843  0.689-  13 1.35 119 1.37  82 1.96
 130  0.059  0.923  0.681-  14 1.35 127 1.37  82 1.96
 131  0.440  0.338  0.868-  15 1.35 128 1.37  84 1.96
 132  0.441  0.423  0.178-  16 1.35 125 1.37  84 1.96
 133  0.812  0.024  0.287-  18 1.41  17 1.42  65 1.42
 134  0.814  0.737  0.761-  19 1.41  29 1.42  66 1.42
 135  0.688  0.524  0.789-  20 1.41  23 1.42  67 1.42
 136  0.686  0.237  0.262-  21 1.41  24 1.42  68 1.42
 137  0.188  0.737  0.264-  26 1.41  22 1.42  69 1.42
 138  0.315  0.524  0.286-  32 1.41  25 1.42  70 1.42
 139  0.187  0.024  0.790-  27 1.41  30 1.42  71 1.42
 140  0.312  0.237  0.759-  28 1.41  31 1.42  72 1.42
 141  0.717  0.007  0.975-  17 1.23
 142  0.920  0.042  0.585-  18 1.23
 143  0.920  0.719  0.466-  19 1.23
 144  0.581  0.542  0.084-  20 1.23
 145  0.578  0.219  0.966-  21 1.23
 146  0.283  0.754  0.577-  22 1.23
 147  0.783  0.507  0.479-  23 1.23
 148  0.782  0.254  0.574-  24 1.23
 149  0.219  0.508  0.973-  25 1.23
 150  0.081  0.719  0.966-  26 1.23
 151  0.080  0.042  0.084-  27 1.23
 152  0.418  0.219  0.464-  28 1.23
 153  0.718  0.754  0.071-  29 1.23
 154  0.283  0.007  0.480-  30 1.23
 155  0.216  0.254  0.069-  31 1.23
 156  0.423  0.542  0.583-  32 1.23
 

IMPORTANT INFORMATION: All symmetrisations will be switched off!
NOSYMM: (Re-)initialisation of all symmetry stuff for point group C_1.

 
 

Automatic generation of k-mesh.
 generate k-points for:    2    1    4
Space group operators:
 irot       det(A)        alpha          n_x          n_y          n_z        tau_x        tau_y        tau_z
    1     1.000000     0.000000     1.000000     0.000000     0.000000     0.000000     0.000000     0.000000
 
 Subroutine IBZKPT returns following result:
 ===========================================
 
 Found      6 irreducible k-points:
 
 Following reciprocal coordinates:
            Coordinates               Weight
  0.000000  0.000000  0.000000      1.000000
  0.500000 -0.000000 -0.000000      1.000000
 -0.000000  0.000000  0.250000      2.000000
  0.500000 -0.000000  0.250000      2.000000
 -0.000000  0.000000  0.500000      1.000000
  0.500000 -0.000000  0.500000      1.000000
 
 Following cartesian coordinates:
            Coordinates               Weight
  0.000000  0.000000  0.000000      1.000000
  0.041994  0.000033  0.000170      1.000000
  0.000130  0.002511  0.039086      2.000000
  0.042124  0.002544  0.039256      2.000000
  0.000259  0.005022  0.078172      1.000000
  0.042254  0.005056  0.078342      1.000000
 


--------------------------------------------------------------------------------------------------------




 Dimension of arrays:
   k-points           NKPTS =      6   k-points in BZ     NKDIM =      6   number of bands    NBANDS=    384
   number of dos      NEDOS =    301   number of ions     NIONS =    156
   non local maximal  LDIM  =      6   non local SUM 2l+1 LMDIM =     18
   total plane-waves  NPLWV = 564480
   max r-space proj   IRMAX =   2190   max aug-charges    IRDMAX=   9230
   dimension x,y,z NGX =    72 NGY =  196 NGZ =   40
   dimension x,y,z NGXF=   144 NGYF=  392 NGZF=   80
   support grid    NGXF=   144 NGYF=  392 NGZF=   80
   ions per type =              80   4  32  24  16
   NGX,Y,Z   is equivalent  to a cutoff of  10.05, 10.05, 10.33 a.u.
   NGXF,Y,Z  is equivalent  to a cutoff of  20.11, 20.09, 20.65 a.u.

 SYSTEM =  flex_MOF                                
 POSCAR =  Co_B                                    

 Startparameter for this run:
   NWRITE =      2    write-flag & timer
   PREC   = normal    normal or accurate (medium, high low for compatibility)
   ISTART =      0    job   : 0-new  1-cont  2-samecut
   ICHARG =      2    charge: 1-file 2-atom 10-const
   ISPIN  =      2    spin polarized calculation?
   LNONCOLLINEAR =      F non collinear calculations
   LSORBIT =      F    spin-orbit coupling
   INIWAV =      1    electr: 0-lowe 1-rand  2-diag
   LASPH  =      F    aspherical Exc in radial PAW
   METAGGA=      F    non-selfconsistent MetaGGA calc.

 Electronic Relaxation 1
   ENCUT  =  600.0 eV  44.10 Ry    6.64 a.u.  23.78 64.78 12.86*2*pi/ulx,y,z
   ENINI  =  600.0     initial cutoff
   ENAUG  =  644.9 eV  augmentation charge cutoff
   NELM   =     80;   NELMIN=  8; NELMDL= -5     # of ELM steps 
   EDIFF  = 0.1E-05   stopping-criterion for ELM
   LREAL  =      T    real-space projection
   NLSPLINE    = F    spline interpolate recip. space projectors
   LCOMPAT=      F    compatible to vasp.4.4
   GGA_COMPAT  = T    GGA compatible to vasp.4.4-vasp.4.6
   LMAXPAW     = -100 max onsite density
   LMAXMIX     =    2 max onsite mixed and CHGCAR
   VOSKOWN=      0    Vosko Wilk Nusair interpolation
   ROPT   =   -0.00050  -0.00050  -0.00050  -0.00050
   ROPT   =   -0.00050
 Ionic relaxation
   EDIFFG = -.1E-01   stopping-criterion for IOM
   NSW    =    500    number of steps for IOM
   NBLOCK =      1;   KBLOCK =    500    inner block; outer block 
   IBRION =      2    ionic relax: 0-MD 1-quasi-New 2-CG
   NFREE  =      1    steps in history (QN), initial steepest desc. (CG)
   ISIF   =      4    stress and relaxation
   IWAVPR =     11    prediction:  0-non 1-charg 2-wave 3-comb
   ISYM   =      0    0-nonsym 1-usesym 2-fastsym
   LCORR  =      T    Harris-Foulkes like correction to forces

   POTIM  = 0.5000    time-step for ionic-motion
   TEIN   =    0.0    initial temperature
   TEBEG  =    0.0;   TEEND  =   0.0 temperature during run
   SMASS  =  -3.00    Nose mass-parameter (am)
   estimated Nose-frequenzy (Omega)   =  0.10E-29 period in steps =****** mass=  -0.324E-26a.u.
   SCALEE = 1.0000    scale energy and forces
   NPACO  =    256;   APACO  = 16.0  distance and # of slots for P.C.
   PSTRESS=    0.0 pullay stress

  Mass of Ions in am
   POMASS =  12.01 58.93  1.00 14.00 16.00
  Ionic Valenz
   ZVAL   =   4.00  9.00  1.00  5.00  6.00
  Atomic Wigner-Seitz radii
   RWIGS  =  -1.00 -1.00 -1.00 -1.00 -1.00
  virtual crystal weights 
   VCA    =   1.00  1.00  1.00  1.00  1.00
   NELECT =     604.0000    total number of electrons
   NUPDOWN=      -1.0000    fix difference up-down

 DOS related values:
   EMIN   =  10.00;   EMAX   =-10.00  energy-range for DOS
   EFERMI =   0.00
   ISMEAR =     0;   SIGMA  =   0.05  broadening in eV -4-tet -1-fermi 0-gaus

 Electronic relaxation 2 (details)
   IALGO  =     38    algorithm
   LDIAG  =      T    sub-space diagonalisation (order eigenvalues)
   LSUBROT=      F    optimize rotation matrix (better conditioning)
   TURBO    =      0    0=normal 1=particle mesh
   IRESTART =      0    0=no restart 2=restart with 2 vectors
   NREBOOT  =      0    no. of reboots
   NMIN     =      0    reboot dimension
   EREF     =   0.00    reference energy to select bands
   IMIX   =      4    mixing-type and parameters
     AMIX     =   0.40;   BMIX     =  1.00
     AMIX_MAG =   1.60;   BMIX_MAG =  1.00
     AMIN     =   0.10
     WC   =   100.;   INIMIX=   1;  MIXPRE=   1;  MAXMIX= -45

 Intra band minimization:
   WEIMIN = 0.0010     energy-eigenvalue tresh-hold
   EBREAK =  0.65E-09  absolut break condition
   DEPER  =   0.30     relativ break condition  

   TIME   =   0.40     timestep for ELM

  volume/ion in A,a.u.               =      15.80       106.63
  Fermi-wavevector in a.u.,A,eV,Ry     =   1.024446  1.935923 14.279178  1.049490
  Thomas-Fermi vector in A             =   2.158234
 
 Write flags
   LWAVE        =      T    write WAVECAR
   LDOWNSAMPLE  =      F    k-point downsampling of WAVECAR
   LCHARG       =      T    write CHGCAR
   LVTOT        =      F    write LOCPOT, total local potential
   LVHAR        =      F    write LOCPOT, Hartree potential only
   LELF         =      F    write electronic localiz. function (ELF)
   LORBIT       =     11    0 simple, 1 ext, 2 COOP (PROOUT), +10 PAW based schemes


 Dipole corrections
   LMONO  =      F    monopole corrections only (constant potential shift)
   LDIPOL =      F    correct potential (dipole corrections)
   IDIPOL =      0    1-x, 2-y, 3-z, 4-all directions 
   EPSILON=  1.0000000 bulk dielectric constant

 Exchange correlation treatment:
   GGA     =    PE    GGA type
   LEXCH   =     8    internal setting for exchange type
   VOSKOWN=      0    Vosko Wilk Nusair interpolation
   LHFCALC =     F    Hartree Fock is set to
   LHFONE  =     F    Hartree Fock one center treatment
   AEXX    =    0.0000 exact exchange contribution

 Linear response parameters
   LEPSILON=     F    determine dielectric tensor
   LRPA    =     F    only Hartree local field effects (RPA)
   LNABLA  =     F    use nabla operator in PAW spheres
   LVEL    =     F    velocity operator in full k-point grid
   LINTERFAST=   F  fast interpolation
   KINTER  =     0    interpolate to denser k-point grid
   CSHIFT  =0.1000    complex shift for real part using Kramers Kronig
   OMEGAMAX=  -1.0    maximum frequency
   DEG_THRESHOLD= 0.2000000E-02 threshold for treating states as degnerate
   RTIME   =   -0.100 relaxation time in fs
  (WPLASMAI=    0.000 imaginary part of plasma frequency in eV, 0.658/RTIME)
   DFIELD  = 0.0000000 0.0000000 0.0000000 field for delta impulse in time
 
 Orbital magnetization related:
   ORBITALMAG=     F  switch on orbital magnetization
   LCHIMAG   =     F  perturbation theory with respect to B field
   DQ        =  0.001000  dq finite difference perturbation B field
   LLRAUG    =     F  two centre corrections for induced B field



--------------------------------------------------------------------------------------------------------


 conjugate gradient relaxation of ions
 charge density and potential will be updated during run
 spin polarized calculation
 Variant of blocked Davidson
 Davidson routine will perform the subspace rotation
 perform sub-space diagonalisation
    after iterative eigenvector-optimisation
 modified Broyden-mixing scheme, WC =      100.0
 initial mixing is a Kerker type mixing with AMIX =  0.4000 and BMIX =      1.0000
 Hartree-type preconditioning will be used
 using additional bands           82
 real space projection scheme for non local part
 use partial core corrections
 calculate Harris-corrections to forces 
   (improved forces if not selfconsistent)
 use gradient corrections 
 use of overlap-Matrix (Vanderbilt PP)
 Gauss-broadening in eV      SIGMA  =   0.05


--------------------------------------------------------------------------------------------------------


  energy-cutoff  :      600.00
  volume of cell :     2464.87
      direct lattice vectors                 reciprocal lattice vectors
    11.906492259 -0.003820646 -0.039278300     0.083988935  0.000066711  0.000339759
    -0.017296226 32.366222456 -2.079344214     0.000017012  0.031033775  0.002138066
    -0.025638058 -0.442612060  6.424665027     0.000518987  0.010044496  0.156344201

  length of vectors
    11.906557660 32.432951262  6.439944367     0.083989648  0.031107343  0.156667388


 
 k-points in units of 2pi/SCALE and weight: read from INCAR                         
   0.00000000  0.00000000  0.00000000       0.125
   0.04199447  0.00003336  0.00016988       0.125
   0.00012975  0.00251112  0.03908605       0.250
   0.04212421  0.00254448  0.03925593       0.250
   0.00025949  0.00502225  0.07817210       0.125
   0.04225396  0.00505560  0.07834198       0.125
 
 k-points in reciprocal lattice and weights: read from INCAR                         
   0.00000000  0.00000000  0.00000000       0.125
   0.50000000 -0.00000000 -0.00000000       0.125
  -0.00000000  0.00000000  0.25000000       0.250
   0.50000000 -0.00000000  0.25000000       0.250
  -0.00000000  0.00000000  0.50000000       0.125
   0.50000000 -0.00000000  0.50000000       0.125
 
 position of ions in fractional coordinates (direct lattice) 
   0.91898942  0.96127384  0.12992124
   0.82675094  0.95356680  0.42283743
   0.91958814  0.79973667  0.92025946
   0.58190711  0.46105560  0.62936582
   0.67257571  0.30709895  0.12662826
   0.17358984  0.80752574  0.12885070
   0.67374531  0.45365613  0.92548690
   0.58025413  0.29958627  0.41973149
   0.32820736  0.45391251  0.42166262
   0.08136031  0.79977057  0.42172290
   0.17279577  0.95398001  0.92700934
   0.32644372  0.30727531  0.62275056
   0.82736265  0.80701474  0.62436681
   0.08073643  0.96122011  0.63092846
   0.41847984  0.29980269  0.91857819
   0.42022410  0.46133556  0.12815810
   0.74749557  0.03408280  0.11637073
   0.85898397  0.05306923  0.44783246
   0.85978857  0.70759725  0.60228711
   0.64206804  0.55307035  0.94760472
   0.63919929  0.20761827  0.10261900
   0.25275282  0.72694330  0.43546602
   0.75277061  0.53397539  0.61843873
   0.75095714  0.22663102  0.43372546
   0.25009813  0.53452054  0.11475111
   0.14183472  0.70810096  0.10315111
   0.14042672  0.05342073  0.94814590
   0.35780569  0.20781349  0.60085965
   0.74916464  0.72668110  0.93154685
   0.25155936  0.03419857  0.61959305
   0.24680130  0.22704687  0.92952415
   0.36160458  0.55333004  0.44631904
   0.71944327  0.07868809  0.11757430
   0.83034425  0.09738367  0.44109405
   0.83159079  0.66326378  0.60980747
   0.67047943  0.59739526  0.94040289
   0.66766657  0.16330473  0.10964432
   0.28086772  0.68232550  0.43373415
   0.78039732  0.57861151  0.61892661
   0.77867039  0.18201448  0.43299806
   0.22232276  0.57915399  0.11621423
   0.17046624  0.66378727  0.10947321
   0.16859489  0.09774618  0.94015617
   0.32964588  0.16349490  0.60887840
   0.72167942  0.68204646  0.93124964
   0.27896031  0.07883918  0.61937874
   0.21934923  0.18241108  0.92975181
   0.33295295  0.59766251  0.44015875
   0.65214339  0.09080264  0.95899468
   0.87177891  0.12774691  0.59554053
   0.87271137  0.63285324  0.45665403
   0.62945058  0.62780545  0.09365490
   0.62615490  0.13294894  0.95525081
   0.34800757  0.67010846  0.59229880
   0.84700044  0.59069137  0.46096479
   0.84585887  0.16989889  0.59172828
   0.15524667  0.59135390  0.95755369
   0.12924846  0.63351328  0.95438406
   0.12713820  0.12822512  0.09259806
   0.37100359  0.13302869  0.45627195
   0.65515941  0.66996574  0.08931523
   0.34557507  0.09086687  0.46129538
   0.15260256  0.17039040  0.08765579
   0.37418131  0.62794876  0.59520704
   0.84751047  0.98172794  0.28065596
   0.84831271  0.77902147  0.76775537
   0.65329438  0.48166631  0.78198388
   0.65145368  0.27899789  0.26892202
   0.15295808  0.77935888  0.27105790
   0.34927652  0.48199456  0.27921412
   0.15202552  0.98194124  0.78339465
   0.34686094  0.27924491  0.76616831
   0.76197242  0.10894819  0.27753472
   0.76387118  0.65173151  0.77264040
   0.73821019  0.60892482  0.77757489
   0.73604749  0.15174409  0.27318864
   0.23863274  0.65213947  0.27309052
   0.26467770  0.60933140  0.27671289
   0.23646272  0.10921596  0.77737421
   0.26187511  0.15202863  0.77178820
   0.03673187  0.88059812  0.02657229
   0.96332640  0.88040000  0.52504359
   0.46358354  0.38042479  0.52347401
   0.53689806  0.38045999  0.02459604
   0.42293777  0.14271555  0.33254808
   0.87807762  0.56665615  0.34073058
   0.87732161  0.19389510  0.71283924
   0.62074520  0.06681650  0.83778032
   0.62410000  0.69400376  0.20957653
   0.57757429  0.61807899  0.21734050
   0.07696018  0.64334698  0.83025247
   0.07504052  0.11854998  0.21611897
   0.92461975  0.64258715  0.33302040
   0.12118340  0.19447197  0.20729910
   0.12395206  0.56741887  0.83597874
   0.37921108  0.69402756  0.71405440
   0.42654549  0.61812306  0.71925377
   0.57370630  0.14271817  0.83116184
   0.92422783  0.11799891  0.71968216
   0.37690004  0.06678864  0.34153573
   0.72162733  0.45765908  0.07098740
   0.27841831  0.30333019  0.47739542
   0.45607985  0.47248567  0.99177776
   0.04551451  0.78849606  0.55780989
   0.22079639  0.95805144  0.07239063
   0.45415867  0.28864127  0.05594746
   0.95485198  0.97254545  0.99384574
   0.77935859  0.80296109  0.47899677
   0.04494176  0.97229334  0.49343165
   0.54633397  0.47218754  0.49183671
   0.72062308  0.30316361  0.98262914
   0.77868535  0.95741517  0.56681832
   0.54430157  0.28840480  0.55594912
   0.28032879  0.45790752  0.56584657
   0.22166235  0.80370154  0.98489580
   0.95545528  0.78865851  0.05768377
   0.94055500  0.92307454  0.18004571
   0.88362574  0.91804111  0.35943376
   0.94088193  0.83792499  0.87008345
   0.56009258  0.42291024  0.67960544
   0.61614549  0.34272678  0.19005971
   0.11654957  0.84301357  0.19216642
   0.61679218  0.41805953  0.86096481
   0.55916158  0.33780993  0.36954013
   0.38442370  0.41824364  0.35812864
   0.05962023  0.83795087  0.37151022
   0.11611077  0.91830810  0.86269843
   0.38361987  0.34283370  0.68714201
   0.88395726  0.84269863  0.68884341
   0.05927890  0.92306157  0.68134179
   0.44042408  0.33794027  0.86834539
   0.44123055  0.42310494  0.17836906
   0.81249797  0.02386966  0.28748008
   0.81354958  0.73684399  0.76116051
   0.68834968  0.52381697  0.78878637
   0.68606193  0.23683020  0.26246721
   0.18804472  0.73723204  0.26409385
   0.31482107  0.52419319  0.28599833
   0.18688583  0.02411223  0.78978246
   0.31160890  0.23711903  0.75948904
   0.71675309  0.00713997  0.97535891
   0.92015493  0.04200419  0.58469107
   0.92032259  0.71864128  0.46593628
   0.58126089  0.54203901  0.08359412
   0.57794820  0.21867257  0.96583146
   0.28317567  0.75382981  0.57699166
   0.78337599  0.50696997  0.47862360
   0.78188805  0.25360295  0.57443455
   0.21928483  0.50764326  0.97348657
   0.08087175  0.71921044  0.96609086
   0.07967136  0.04243753  0.08433126
   0.41841925  0.21878939  0.46444364
   0.71846412  0.75369478  0.07123095
   0.28251034  0.00713262  0.48038387
   0.21578453  0.25412573  0.06861006
   0.42292538  0.54220800  0.58282217
 
 position of ions in cartesian coordinates  (Angst):
  10.92198311 31.05178714 -1.20021511
   9.81636982 30.67304342  0.70132185
  10.91164294 25.47362358  4.21331109
   6.90436227 14.64184000  3.06191498
   7.99945933  9.88101597  0.14856210
   2.04957549 26.07886353 -0.85811969
   7.99036912 14.27092931  4.97617249
   6.89284855  9.50848075  2.05089984
   3.88913681 14.50354620  1.75230930
   0.94407074 25.69858161  1.04323434
   2.01712457 30.46576351  3.96528453
   3.86551876  9.66845705  3.34921046
   9.82102108 25.84050534  2.30078878
   0.92848639 30.83149876  2.05162538
   4.95389096  9.29530806  5.26172700
   4.99212987 14.87335959 -0.15240823
   8.89647718  1.04876841  0.64741272
  10.21508659  1.51615250  2.73308493
  10.20938570 22.63238548  2.36438362
   7.61091738 17.47892370  4.91279989
   7.60439944  6.67195670  0.20247615
   2.98566159 23.33470039  1.27623025
   8.93776613 17.00616162  2.83337547
   8.92622560  7.14034880  2.28580059
   2.96560423 17.24866504 -0.38403815
   1.67386187 22.87235545 -0.81524532
   1.64675705  1.30882997  5.97492401
   4.24121142  6.45882293  3.41415217
   8.88347115 23.10474595  4.44443038
   2.97871291  0.83167789  3.89968640
   2.91077947  6.93628790  5.49007875
   4.28442888 17.71027546  1.70268348
   8.56167034  2.49204756  0.56349738
   9.87349422  2.95353566  2.59877284
   9.87422309 21.19425755  2.50599157
   7.94861535 18.91663261  4.77324791
   7.94393123  5.23447630  0.33863647
   3.32122760 21.89124975  1.35677504
   9.26591882 18.45054282  2.74261095
   9.25698355  5.69649582  2.37281192
   2.63408753 18.69273971 -0.46635547
   2.01536730 21.43518085 -0.68360911
   1.98157931  2.74690591  5.83031838
   3.90648781  5.02095596  3.55892964
   8.55699821 21.66032790  4.53641127
   3.30419545  2.27651613  3.80441002
   2.58468788  5.49160031  5.58543286
   3.94267958 19.14798613  1.57204865
   7.73858289  2.51198436  5.94679453
  10.36235077  3.86776078  3.52627662
  10.36827744 20.27761376  1.58365086
   7.48128869 20.27583310 -0.72844599
   7.42851824  3.87785717  5.83612555
   4.11677375 21.42539134  2.39826608
  10.06276927 18.91118346  1.70002496
  10.05310276  5.23384750  3.41515382
   1.81366523 18.71547379  4.91623560
   1.50346981 20.08151597  4.80922906
   1.50917817  4.10869203  0.32329355
   4.40335255  4.10226710  2.64020962
   7.78677267 21.64222502 -0.84500251
   4.10118858  2.73552202  2.76115123
   1.81176674  5.47551320  0.20286483
   4.42906580 20.05945367  2.50358701
  10.06670119 31.64736519 -0.27151854
  10.06727086 24.87092335  3.27939699
   7.75006497 15.24110760  3.99677412
   7.74480799  8.90859055  1.12201329
   1.80076487 25.10434508  0.11489290
   4.14316300 15.47542525  0.77790562
   1.77302214 31.43440781  2.98528305
   4.10542409  8.69766220  4.32810437
   9.06341889  3.40048995  1.52659783
   9.06394478 20.74918865  3.57877802
   8.75902625 19.36161178  3.70049826
   8.75411517  4.78765413  1.41070662
   2.82299778 20.98550618  0.38911962
   3.13374953 19.59826781  0.50038182
   2.79362219  3.18992926  4.75798350
   3.09559730  4.57798932  4.63207477
   0.42143548 28.48973325 -1.66179133
  11.44114965 28.25915116  1.50473669
   5.49965302 12.07944629  2.55390233
   6.38536153 12.30111482 -0.65417437
   5.02471097  4.47035767  1.82314299
  10.43628767 18.18635281  0.97631723
  10.42419349  5.95678880  4.14211899
   7.36826318  1.78941422  5.21914163
   7.41346506 22.36713437 -0.12112725
   6.86062122 19.90647801  0.08845481
   0.88391228 20.45493755  3.99333135
   0.88587799  3.74107158  1.13903832
  10.98932553 20.64718729  0.76706717
   1.43419080  6.20210689  0.92269322
   1.44458712 17.99471758  4.18615561
   4.48476276 22.14555241  3.12954341
   5.04952907 19.68632842  3.31891993
   6.80705178  4.24917385  5.02064200
  10.98381934  3.49710796  4.34205434
   4.47764590  2.00908801  2.04057213
   8.58231447 14.77851870 -0.52390481
   3.29749946  9.60528774  2.42544197
   5.39671175 14.85186090  5.37146549
   0.51397894 25.27357145  1.94239925
   2.61048387 30.97562147 -1.53570568
   5.40100989  9.31572929 -0.25857943
  11.32663612 31.03408623  4.32536427
   9.25325833 25.77383000  1.37714938
   0.50563109 31.25089216  1.14663527
   6.48414443 15.06314690  2.15658663
   8.54965688  9.37458411  5.65437673
   9.24031935 30.73405663  1.62023671
   6.46148062  9.08642459  2.95071475
   3.31530530 14.56921506  2.67221651
   2.60006923 25.57600907  4.64774692
  11.36100118 25.49671470 -1.30682224
  11.17812911 29.79315187 -0.79959973
  10.49578919 29.55105694  0.36561075
  11.16580324 26.73176232  3.81070397
   6.64399949 13.38506527  3.46486188
   7.32533083 11.00629446  0.48422187
   1.36818883 27.19966427 -0.52288836
   7.31452698 13.14757773  4.63789428
   6.64233590 10.76793212  1.64978550
   4.56072205 13.37698603  1.41608455
   0.68584966 26.95664174  0.64209863
   1.34447078 29.33988000  3.62850917
   4.54402033 10.79062875  3.68672004
  10.49259411 26.96670365  2.63860731
   0.67237000 29.57421940  2.45570168
   5.21579808 10.55182719  4.85883501
   5.24161697 13.61367440  0.24884989
   9.66621745  0.64222418  1.76541644
   9.65426251 23.50884938  3.32609418
   8.16654707 16.60222016  3.95145524
   8.15776570  7.54650668  1.16686505
   2.21943082 23.74380653  0.15636930
   3.73201568 16.83836424  0.73509976
   2.20448920  0.43014058  5.01660957
   3.68659587  7.33729782  4.37417113
   8.50888528 -0.20335021  6.22335499
  10.94010072  1.09721013  3.63296099
  10.93343827 23.04995841  1.46303322
   6.90925984 17.50453473 -0.61285243
   6.85279147  6.64790832  5.72774725
   3.34379757 24.14215796  2.12838386
   9.30622056 16.19386532  1.99006157
   9.29043026  7.95093061  3.13251051
   2.57717447 15.99877995  5.19014690
   0.92569053 22.85021272  4.70814755
   0.94571034  1.33591206  0.45042848
   4.96621395  6.87421919  2.51252153
   8.53952521 24.35998033 -1.13777597
   3.35126765  0.01715285  3.06037776
   2.56308236  8.19389793 -0.09609386
   5.01123714 17.28964484  2.60038833
 


--------------------------------------------------------------------------------------------------------


 k-point  1 :   0.0000 0.0000 0.0000  plane waves:   82161
 k-point  2 :   0.5000-0.0000-0.0000  plane waves:   82256
 k-point  3 :  -0.0000 0.0000 0.2500  plane waves:   82259
 k-point  4 :   0.5000-0.0000 0.2500  plane waves:   82262
 k-point  5 :  -0.0000 0.0000 0.5000  plane waves:   82300
 k-point  6 :   0.5000-0.0000 0.5000  plane waves:   82314

 maximum and minimum number of plane-waves per node :     20597    20524

 maximum number of plane-waves:     82314
 maximum index in each direction: 
   IXMAX=   23   IYMAX=   64   IZMAX=   12
   IXMIN=  -24   IYMIN=  -64   IZMIN=  -13


 real space projection operators:
  total allocation   :      11647.11 KBytes
  max/ min on nodes  :       2923.93       2903.94


 parallel 3D FFT for wavefunctions:
    minimum data exchange during FFTs selected (reduces bandwidth)
 parallel 3D FFT for charge:
    minimum data exchange during FFTs selected (reduces bandwidth)


 total amount of memory used by VASP MPI-rank0   113118. kBytes
=======================================================================

   base      :      30000. kBytes
   nonlr-proj:       9310. kBytes
   fftplans  :       6314. kBytes
   grid      :      18063. kBytes
   one-center:       1213. kBytes
   wavefun   :      48218. kBytes
 
     INWAV:  cpu time    0.0003: real time    0.0014
 Broyden mixing: mesh for mixing (old mesh)
   NGX = 47   NGY =129   NGZ = 25
  (NGX  =144   NGY  =392   NGZ  = 80)
  gives a total of 151575 points

 initial charge density was supplied:
 charge density of overlapping atoms calculated
 number of electron     604.0000000 magnetization      -0.0000000
 keeping initial charge density in first step


--------------------------------------------------------------------------------------------------------


 Maximum index for non-local projection operator          531
 Maximum index for augmentation-charges          571 (set IRDMAX)


--------------------------------------------------------------------------------------------------------


 First call to EWALD:  gamma=   0.131
 Maximum number of real-space cells 3x 1x 5
 Maximum number of reciprocal cells 2x 6x 2

    FEWALD:  cpu time    0.0142: real time    0.0142


--------------------------------------- Iteration      1(   1)  ---------------------------------------


    POTLOK:  cpu time    0.3003: real time    0.3981
    SETDIJ:  cpu time    0.0643: real time    0.0662
     EDDAV:  cpu time   28.0856: real time   28.2191
       DOS:  cpu time    0.0048: real time    0.0049
    --------------------------------------------
      LOOP:  cpu time   28.4551: real time   28.6883

 eigenvalue-minimisations  :  9216
 total energy-change (2. order) : 0.4910124E+04  (-0.2981688E+05)
 number of electron     604.0000000 magnetization      -0.0000000
 augmentation part      604.0000000 magnetization      -0.0000000

 Free energy of the ion-electron system (eV)
  ---------------------------------------------------
  alpha Z        PSCENC =       685.35540836
  Ewald energy   TEWEN  =      6490.03214129
  -Hartree energ DENC   =    -31733.32670131
  -exchange      EXHF   =         0.00000000
  -V(xc)+E(xc)   XCENC  =      2117.07838403
  PAW double counting   =     22087.95224925   -22402.63741193
  entropy T*S    EENTRO =        -0.03996827
  eigenvalues    EBANDS =     -1026.10053937
  atomic energy  EATOM  =     28691.81066055
  Solvation  Ediel_sol  =         0.00000000
  ---------------------------------------------------
  free energy    TOTEN  =      4910.12422260 eV

  energy without entropy =     4910.16419087  energy(sigma->0) =     4910.14420673


--------------------------------------------------------------------------------------------------------




--------------------------------------- Iteration      1(   2)  ---------------------------------------


     EDDAV:  cpu time   34.5921: real time   34.6363
       DOS:  cpu time    0.0033: real time    0.0033
    --------------------------------------------
      LOOP:  cpu time   34.5955: real time   34.6397

 eigenvalue-minimisations  : 12064
 total energy-change (2. order) :-0.5482842E+04  (-0.5282383E+04)
 number of electron     604.0000000 magnetization      -0.0000000
 augmentation part      604.0000000 magnetization      -0.0000000

 Free energy of the ion-electron system (eV)
  ---------------------------------------------------
  alpha Z        PSCENC =       685.35540836
  Ewald energy   TEWEN  =      6490.03214129
  -Hartree energ DENC   =    -31733.32670131
  -exchange      EXHF   =         0.00000000
  -V(xc)+E(xc)   XCENC  =      2117.07838403
  PAW double counting   =     22087.95224925   -22402.63741193
  entropy T*S    EENTRO =        -0.00000001
  eigenvalues    EBANDS =     -6508.98224223
  atomic energy  EATOM  =     28691.81066055
  Solvation  Ediel_sol  =         0.00000000
  ---------------------------------------------------
  free energy    TOTEN  =      -572.71751201 eV

  energy without entropy =     -572.71751200  energy(sigma->0) =     -572.71751200


--------------------------------------------------------------------------------------------------------




--------------------------------------- Iteration      1(   3)  ---------------------------------------


     EDDAV:  cpu time   31.9596: real time   31.9988
       DOS:  cpu time    0.0045: real time    0.0045
    --------------------------------------------
      LOOP:  cpu time   31.9642: real time   32.0033

 eigenvalue-minimisations  : 11008
 total energy-change (2. order) :-0.6976480E+03  (-0.6901079E+03)
 number of electron     604.0000000 magnetization      -0.0000000
 augmentation part      604.0000000 magnetization      -0.0000000

 Free energy of the ion-electron system (eV)
  ---------------------------------------------------
  alpha Z        PSCENC =       685.35540836
  Ewald energy   TEWEN  =      6490.03214129
  -Hartree energ DENC   =    -31733.32670131
  -exchange      EXHF   =         0.00000000
  -V(xc)+E(xc)   XCENC  =      2117.07838403
  PAW double counting   =     22087.95224925   -22402.63741193
  entropy T*S    EENTRO =        -0.08026412
  eigenvalues    EBANDS =     -7206.55000546
  atomic energy  EATOM  =     28691.81066055
  Solvation  Ediel_sol  =         0.00000000
  ---------------------------------------------------
  free energy    TOTEN  =     -1270.36553934 eV

  energy without entropy =    -1270.28527523  energy(sigma->0) =    -1270.32540728


--------------------------------------------------------------------------------------------------------




--------------------------------------- Iteration      1(   4)  ---------------------------------------


     EDDAV:  cpu time   34.4099: real time   34.4501
       DOS:  cpu time    0.0046: real time    0.0046
    --------------------------------------------
      LOOP:  cpu time   34.4145: real time   34.4547

 eigenvalue-minimisations  : 12352
 total energy-change (2. order) :-0.2422766E+02  (-0.2404704E+02)
 number of electron     604.0000000 magnetization      -0.0000000
 augmentation part      604.0000000 magnetization      -0.0000000

 Free energy of the ion-electron system (eV)
  ---------------------------------------------------
  alpha Z        PSCENC =       685.35540836
  Ewald energy   TEWEN  =      6490.03214129
  -Hartree energ DENC   =    -31733.32670131
  -exchange      EXHF   =         0.00000000
  -V(xc)+E(xc)   XCENC  =      2117.07838403
  PAW double counting   =     22087.95224925   -22402.63741193
  entropy T*S    EENTRO =        -0.08892150
  eigenvalues    EBANDS =     -7230.76901043
  atomic energy  EATOM  =     28691.81066055
  Solvation  Ediel_sol  =         0.00000000
  ---------------------------------------------------
  free energy    TOTEN  =     -1294.59320170 eV

  energy without entropy =    -1294.50428020  energy(sigma->0) =    -1294.54874095


--------------------------------------------------------------------------------------------------------




--------------------------------------- Iteration      1(   5)  ---------------------------------------


     EDDAV:  cpu time   35.5695: real time   35.6088
       DOS:  cpu time    0.0046: real time    0.0046
    CHARGE:  cpu time    1.0456: real time    1.0505
    MIXING:  cpu time    0.0111: real time    0.0122
    --------------------------------------------
      LOOP:  cpu time   36.6309: real time   36.6761

 eigenvalue-minimisations  : 12512
 total energy-change (2. order) :-0.6963399E+00  (-0.6949217E+00)
 number of electron     604.0000188 magnetization      -0.0000415
 augmentation part       37.2174948 magnetization      -0.0019890

 Broyden mixing:
  rms(total) = 0.85016E+01    rms(broyden)= 0.85009E+01
  rms(prec ) = 0.90156E+01
  weight for this iteration     100.00

 Free energy of the ion-electron system (eV)
  ---------------------------------------------------
  alpha Z        PSCENC =       685.35540836
  Ewald energy   TEWEN  =      6490.03214129
  -Hartree energ DENC   =    -31733.32670131
  -exchange      EXHF   =         0.00000000
  -V(xc)+E(xc)   XCENC  =      2117.07838403
  PAW double counting   =     22087.95224925   -22402.63741193
  entropy T*S    EENTRO =        -0.08867664
  eigenvalues    EBANDS =     -7231.46559520
  atomic energy  EATOM  =     28691.81066055
  Solvation  Ediel_sol  =         0.00000000
  ---------------------------------------------------
  free energy    TOTEN  =     -1295.28954161 eV

  energy without entropy =    -1295.20086496  energy(sigma->0) =    -1295.24520329


--------------------------------------------------------------------------------------------------------




--------------------------------------- Iteration      1(   6)  ---------------------------------------


    POTLOK:  cpu time    0.2604: real time    0.2617
    SETDIJ:  cpu time    0.0620: real time    0.0619
     EDDAV:  cpu time   39.0305: real time   39.0759
       DOS:  cpu time    0.0046: real time    0.0046
    CHARGE:  cpu time    0.9718: real time    0.9728
    MIXING:  cpu time    0.0098: real time    0.0201
    --------------------------------------------
      LOOP:  cpu time   40.3390: real time   40.3970

 eigenvalue-minimisations  : 14016
 total energy-change (2. order) :-0.2010796E+03  (-0.2388998E+03)
 number of electron     604.0000153 magnetization      -0.0000305
 augmentation part       56.9366346 magnetization      -0.0057845

 Broyden mixing:
  rms(total) = 0.21413E+02    rms(broyden)= 0.21413E+02
  rms(prec ) = 0.21650E+02
  weight for this iteration     100.00

 eigenvalues of (default mixing * dielectric matrix)
  average eigenvalue GAMMA=   0.1011
  0.1011

 Free energy of the ion-electron system (eV)
  ---------------------------------------------------
  alpha Z        PSCENC =       685.35540836
  Ewald energy   TEWEN  =      6490.03214129
  -Hartree energ DENC   =    -32251.96071949
  -exchange      EXHF   =         0.00000000
  -V(xc)+E(xc)   XCENC  =      2154.85818318
  PAW double counting   =     32836.45840788   -33064.03645636
  entropy T*S    EENTRO =        -0.09856850
  eigenvalues    EBANDS =     -7038.78823498
  atomic energy  EATOM  =     28691.81066055
  Solvation  Ediel_sol  =         0.00000000
  ---------------------------------------------------
  free energy    TOTEN  =     -1496.36917807 eV

  energy without entropy =    -1496.27060957  energy(sigma->0) =    -1496.31989382


--------------------------------------------------------------------------------------------------------




--------------------------------------- Iteration      1(   7)  ---------------------------------------


    POTLOK:  cpu time    0.2612: real time    0.2617
    SETDIJ:  cpu time    0.0608: real time    0.0616
     EDDAV:  cpu time   30.8791: real time   30.9148
       DOS:  cpu time    0.0042: real time    0.0042
    CHARGE:  cpu time    0.9636: real time    0.9646
    MIXING:  cpu time    0.0066: real time    0.0109
    --------------------------------------------
      LOOP:  cpu time   32.1756: real time   32.2178

 eigenvalue-minimisations  : 10976
 total energy-change (2. order) : 0.8950370E+02  (-0.2056959E+02)
 number of electron     604.0000143 magnetization      -0.0009301
 augmentation part       54.8952672 magnetization       0.0103634

 Broyden mixing:
  rms(total) = 0.14003E+02    rms(broyden)= 0.14003E+02
  rms(prec ) = 0.14321E+02
  weight for this iteration     100.00

 eigenvalues of (default mixing * dielectric matrix)
  average eigenvalue GAMMA=   0.4754
  0.4754  0.4754

 Free energy of the ion-electron system (eV)
  ---------------------------------------------------
  alpha Z        PSCENC =       685.35540836
  Ewald energy   TEWEN  =      6490.03214129
  -Hartree energ DENC   =    -32353.99362009
  -exchange      EXHF   =         0.00000000
  -V(xc)+E(xc)   XCENC  =      2157.17147871
  PAW double counting   =     34290.91563327   -34546.61453766
  entropy T*S    EENTRO =        -0.06887232
  eigenvalues    EBANDS =     -6821.47376759
  atomic energy  EATOM  =     28691.81066055
  Solvation  Ediel_sol  =         0.00000000
  ---------------------------------------------------
  free energy    TOTEN  =     -1406.86547548 eV

  energy without entropy =    -1406.79660316  energy(sigma->0) =    -1406.83103932


--------------------------------------------------------------------------------------------------------




--------------------------------------- Iteration      1(   8)  ---------------------------------------


    POTLOK:  cpu time    0.2559: real time    0.2565
    SETDIJ:  cpu time    0.0613: real time    0.0613
     EDDAV:  cpu time   36.6985: real time   36.7432
       DOS:  cpu time    0.0048: real time    0.0048
    CHARGE:  cpu time    0.9693: real time    0.9703
    MIXING:  cpu time    0.0060: real time    0.0079
    --------------------------------------------
      LOOP:  cpu time   37.9958: real time   38.0440

 eigenvalue-minimisations  : 12992
 total energy-change (2. order) : 0.2397350E+03  (-0.5687834E+02)
 number of electron     604.0000167 magnetization       0.0007878
 augmentation part       48.9062650 magnetization      -0.0292279

 Broyden mixing:
  rms(total) = 0.36243E+01    rms(broyden)= 0.36239E+01
  rms(prec ) = 0.41289E+01
  weight for this iteration     100.00

 eigenvalues of (default mixing * dielectric matrix)
  average eigenvalue GAMMA=   0.5223
  0.5062  0.5304  0.5304

 Free energy of the ion-electron system (eV)
  ---------------------------------------------------
  alpha Z        PSCENC =       685.35540836
  Ewald energy   TEWEN  =      6490.03214129
  -Hartree energ DENC   =    -32588.46595414
  -exchange      EXHF   =         0.00000000
  -V(xc)+E(xc)   XCENC  =      2166.42205617
  PAW double counting   =     39482.90020546   -39816.85457555
  entropy T*S    EENTRO =        -0.02914055
  eigenvalues    EBANDS =     -6278.30127090
  atomic energy  EATOM  =     28691.81066055
  Solvation  Ediel_sol  =         0.00000000
  ---------------------------------------------------
  free energy    TOTEN  =     -1167.13046931 eV

  energy without entropy =    -1167.10132876  energy(sigma->0) =    -1167.11589904


--------------------------------------------------------------------------------------------------------




--------------------------------------- Iteration      1(   9)  ---------------------------------------


    POTLOK:  cpu time    0.2681: real time    0.2686
    SETDIJ:  cpu time    0.0609: real time    0.0617
     EDDAV:  cpu time   37.0640: real time   37.1082
       DOS:  cpu time    0.0045: real time    0.0045
    CHARGE:  cpu time    0.9763: real time    0.9773
    MIXING:  cpu time    0.0059: real time    0.0059
    --------------------------------------------
      LOOP:  cpu time   38.3797: real time   38.4262

 eigenvalue-minimisations  : 13248
 total energy-change (2. order) :-0.1627920E+02  (-0.5405855E+02)
 number of electron     604.0000169 magnetization      -0.0024128
 augmentation part       36.3620092 magnetization       0.1851222

 Broyden mixing:
  rms(total) = 0.58897E+01    rms(broyden)= 0.58894E+01
  rms(prec ) = 0.64765E+01
  weight for this iteration     100.00

 eigenvalues of (default mixing * dielectric matrix)
  average eigenvalue GAMMA=   0.5071
  0.9037  0.3901  0.3901  0.3444

 Free energy of the ion-electron system (eV)
  ---------------------------------------------------
  alpha Z        PSCENC =       685.35540836
  Ewald energy   TEWEN  =      6490.03214129
  -Hartree energ DENC   =    -32786.81907263
  -exchange      EXHF   =         0.00000000
  -V(xc)+E(xc)   XCENC  =      2175.52003443
  PAW double counting   =     42992.51675297   -43344.99576932
  entropy T*S    EENTRO =        -0.01583814
  eigenvalues    EBANDS =     -6086.81398724
  atomic energy  EATOM  =     28691.81066055
  Solvation  Ediel_sol  =         0.00000000
  ---------------------------------------------------
  free energy    TOTEN  =     -1183.40966974 eV

  energy without entropy =    -1183.39383159  energy(sigma->0) =    -1183.40175066


--------------------------------------------------------------------------------------------------------




--------------------------------------- Iteration      1(  10)  ---------------------------------------


    POTLOK:  cpu time    0.2567: real time    0.2572
    SETDIJ:  cpu time    0.0616: real time    0.0616
     EDDAV:  cpu time   34.7581: real time   34.7997
       DOS:  cpu time    0.0047: real time    0.0047
    CHARGE:  cpu time    0.9734: real time    0.9745
    MIXING:  cpu time    0.0063: real time    0.0063
    --------------------------------------------
      LOOP:  cpu time   36.0609: real time   36.1040

 eigenvalue-minimisations  : 12512
 total energy-change (2. order) : 0.2011234E+02  (-0.4169839E+02)
 number of electron     604.0000167 magnetization       0.0645656
 augmentation part       43.0571125 magnetization      -0.4860630

 Broyden mixing:
  rms(total) = 0.24189E+01    rms(broyden)= 0.24187E+01
  rms(prec ) = 0.25393E+01
  weight for this iteration     100.00

 eigenvalues of (default mixing * dielectric matrix)
  average eigenvalue GAMMA=   0.5220
  0.7196  0.7196  0.4590  0.4590  0.2528

 Free energy of the ion-electron system (eV)
  ---------------------------------------------------
  alpha Z        PSCENC =       685.35540836
  Ewald energy   TEWEN  =      6490.03214129
  -Hartree energ DENC   =    -32919.30395906
  -exchange      EXHF   =         0.00000000
  -V(xc)+E(xc)   XCENC  =      2184.60514797
  PAW double counting   =     48406.25824255   -48752.63561884
  entropy T*S    EENTRO =        -0.05636689
  eigenvalues    EBANDS =     -5949.36299037
  atomic energy  EATOM  =     28691.81066055
  Solvation  Ediel_sol  =         0.00000000
  ---------------------------------------------------
  free energy    TOTEN  =     -1163.29733444 eV

  energy without entropy =    -1163.24096755  energy(sigma->0) =    -1163.26915099


--------------------------------------------------------------------------------------------------------




--------------------------------------- Iteration      1(  11)  ---------------------------------------


    POTLOK:  cpu time    0.2529: real time    0.2535
    SETDIJ:  cpu time    0.0618: real time    0.0618
     EDDAV:  cpu time   36.3697: real time   36.4097
       DOS:  cpu time    0.0039: real time    0.0039
    CHARGE:  cpu time    0.9695: real time    0.9705
    MIXING:  cpu time    0.0062: real time    0.0062
    --------------------------------------------
      LOOP:  cpu time   37.6640: real time   37.7056

 eigenvalue-minimisations  : 13216
 total energy-change (2. order) :-0.1720745E+02  (-0.1724418E+02)
 number of electron     604.0000161 magnetization       0.0456500
 augmentation part       45.2244832 magnetization       1.6518073

 Broyden mixing:
  rms(total) = 0.57358E+01    rms(broyden)= 0.57358E+01
  rms(prec ) = 0.62084E+01
  weight for this iteration     100.00

 eigenvalues of (default mixing * dielectric matrix)
  average eigenvalue GAMMA=   0.5695
  1.4043  0.6279  0.4522  0.4522  0.2402  0.2402

 Free energy of the ion-electron system (eV)
  ---------------------------------------------------
  alpha Z        PSCENC =       685.35540836
  Ewald energy   TEWEN  =      6490.03214129
  -Hartree energ DENC   =    -32994.16674517
  -exchange      EXHF   =         0.00000000
  -V(xc)+E(xc)   XCENC  =      2189.27327118
  PAW double counting   =     51100.60511331   -51441.79288740
  entropy T*S    EENTRO =        -0.01266803
  eigenvalues    EBANDS =     -5901.60907752
  atomic energy  EATOM  =     28691.81066055
  Solvation  Ediel_sol  =         0.00000000
  ---------------------------------------------------
  free energy    TOTEN  =     -1180.50478345 eV

  energy without entropy =    -1180.49211541  energy(sigma->0) =    -1180.49844943


--------------------------------------------------------------------------------------------------------




--------------------------------------- Iteration      1(  12)  ---------------------------------------


    POTLOK:  cpu time    0.2535: real time    0.2541
    SETDIJ:  cpu time    0.0616: real time    0.0616
     EDDAV:  cpu time   36.1376: real time   36.1810
       DOS:  cpu time    0.0041: real time    0.0041
    CHARGE:  cpu time    0.9640: real time    0.9649
    MIXING:  cpu time    0.0071: real time    0.0071
    --------------------------------------------
      LOOP:  cpu time   37.4280: real time   37.4728

 eigenvalue-minimisations  : 13120
 total energy-change (2. order) : 0.3121030E+01  (-0.3484917E+02)
 number of electron     604.0000156 magnetization       0.0777300
 augmentation part       45.6932582 magnetization      -1.2170563

 Broyden mixing:
  rms(total) = 0.41552E+01    rms(broyden)= 0.41551E+01
  rms(prec ) = 0.44630E+01
  weight for this iteration     100.00

 eigenvalues of (default mixing * dielectric matrix)
  average eigenvalue GAMMA=   0.5670
  1.8012  0.4444  0.4444  0.4454  0.4454  0.2978  0.0906

 Free energy of the ion-electron system (eV)
  ---------------------------------------------------
  alpha Z        PSCENC =       685.35540836
  Ewald energy   TEWEN  =      6490.03214129
  -Hartree energ DENC   =    -33083.38415531
  -exchange      EXHF   =         0.00000000
  -V(xc)+E(xc)   XCENC  =      2194.24995006
  PAW double counting   =     53988.31852518   -54328.55640883
  entropy T*S    EENTRO =        -0.01433981
  eigenvalues    EBANDS =     -5815.19553525
  atomic energy  EATOM  =     28691.81066055
  Solvation  Ediel_sol  =         0.00000000
  ---------------------------------------------------
  free energy    TOTEN  =     -1177.38375376 eV

  energy without entropy =    -1177.36941395  energy(sigma->0) =    -1177.37658386


--------------------------------------------------------------------------------------------------------




--------------------------------------- Iteration      1(  13)  ---------------------------------------


    POTLOK:  cpu time    0.2546: real time    0.2560
    SETDIJ:  cpu time    0.0618: real time    0.0617
     EDDAV:  cpu time   35.8768: real time   35.9146
       DOS:  cpu time    0.0039: real time    0.0039
    CHARGE:  cpu time    0.9648: real time    0.9667
    MIXING:  cpu time    0.0066: real time    0.0066
    --------------------------------------------
      LOOP:  cpu time   37.1684: real time   37.2096

 eigenvalue-minimisations  : 12736
 total energy-change (2. order) : 0.6417611E+01  (-0.1008120E+02)
 number of electron     604.0000159 magnetization       0.0750544
 augmentation part       47.1509366 magnetization       0.0970484

 Broyden mixing:
  rms(total) = 0.37237E+01    rms(broyden)= 0.37237E+01
  rms(prec ) = 0.39545E+01
  weight for this iteration     100.00

 eigenvalues of (default mixing * dielectric matrix)
  average eigenvalue GAMMA=   0.5245
  1.8694  0.4401  0.4401  0.4846  0.4846  0.2956  0.0907  0.0907

 Free energy of the ion-electron system (eV)
  ---------------------------------------------------
  alpha Z        PSCENC =       685.35540836
  Ewald energy   TEWEN  =      6490.03214129
  -Hartree energ DENC   =    -33135.66898625
  -exchange      EXHF   =         0.00000000
  -V(xc)+E(xc)   XCENC  =      2196.45742048
  PAW double counting   =     55577.30067548   -55918.61198576
  entropy T*S    EENTRO =        -0.02924967
  eigenvalues    EBANDS =     -5757.61222747
  atomic energy  EATOM  =     28691.81066055
  Solvation  Ediel_sol  =         0.00000000
  ---------------------------------------------------
  free energy    TOTEN  =     -1170.96614300 eV

  energy without entropy =    -1170.93689333  energy(sigma->0) =    -1170.95151816


--------------------------------------------------------------------------------------------------------




--------------------------------------- Iteration      1(  14)  ---------------------------------------


    POTLOK:  cpu time    0.2536: real time    0.2542
    SETDIJ:  cpu time    0.0622: real time    0.0622
     EDDAV:  cpu time   35.8757: real time   35.9170
[...]
   80            fft3d_mpi                            30.445687                     5160   5
   81              fftbas_plan_mpi                      30.426935                   5160   6
   82                dfftw_execute                        14.547485                15480   7
   83                map_forward                          13.059196                10320   7
   84                  map_gather                            3.564131               5160   8
   85                  m_alltoallv_z                         2.648681               5160   8
   86                  map_scatter                           4.221735               5160   8
   87          pw_charge                             3.502606                       5160   4
   88          fft3d_mpi                             0.370628                         86   4
   89            fftbas_plan_mpi                       0.331469                       86   5
   90              dfftw_execute                         0.119240                    258   6
   91              map_backward                          0.164434                    172   6
   92                map_gather                            0.054707                  172   7
   93                m_alltoallv_z                         0.103985                  172   7
   94                map_scatter                           0.003599                  172   7
   95        depsum                                0.257912                           43   3
   96        fft3d_mpi                             0.345120                           86   3
   97          fftbas_plan_mpi                       0.329725                         86   4
   98            dfftw_execute                         0.093848                      258   5
   99            map_backward                          0.173965                      172   5
  100              map_gather                            0.029725                     86   6
  101              m_alltoallv_z                         0.129424                     86   6
  102              map_scatter                           0.013257                     86   6
  103      brmix                                 0.560553                             43   2
  104        brpre                                 0.005300                           86   3
  105        setg0                                 0.064499                           45   3
  106        broyd                                 0.367442                           43   3
  107          brsav                                 0.011366                       1126   4
  108          brget                                 0.035786                       4896   4
  109      force_and_stress                     24.629073                              1   2
  110        set_charge                            0.958099                            1   3
  111          soft_charge                           0.907035                          1   4
  112            fftwav_mpi                            0.787967                      120   5
  113              fft3d_mpi                             0.707748                    120   6
  114                fftbas_plan_mpi                       0.707314                  120   7
  115                  dfftw_execute                         0.341862                360   8
  116                  map_forward                           0.300850                240   8
  117                    map_gather                            0.081755              120   9
  118                    m_alltoallv_z                         0.061633              120   9
  119                    map_scatter                           0.097088              120   9
  120            pw_charge                             0.079694                      120   5
  121            fft3d_mpi                             0.008322                        2   5
  122              fftbas_plan_mpi                       0.007399                      2   6
  123                dfftw_execute                         0.002748                    6   7
  124                map_backward                          0.003506                    4   7
  125                  map_gather                            0.001258                  4   8
  126                  m_alltoallv_z                         0.002065                  4   8
  127                  map_scatter                           0.000074                  4   8
  128          depsum                                0.004584                          1   4
  129          fft3d_mpi                             0.007828                          2   4
  130            fftbas_plan_mpi                       0.007489                        2   5
  131              dfftw_execute                         0.002174                      6   6
  132              map_backward                          0.003832                      4   6
  133                map_gather                            0.000665                    2   7
  134                m_alltoallv_z                         0.002839                    2   7
  135                map_scatter                           0.000293                    2   7
  136        forloc                                0.113805                            1   3
  137        fornlr                                3.988543                            1   3
  138          rspher_all                            0.088642                          3   4
  139          phaser                                0.246488                         18   4
  140          rpro_isp                              3.531278                         18   4
  141            fftwav_mpi                            2.774793                      432   5
  142              fft3d_mpi                             2.483130                    432   6
  143                fftbas_plan_mpi                       2.481520                  432   7
  144                  dfftw_execute                         1.196557               1296   8
  145                  map_forward                           1.049334                864   8
  146                    map_gather                            0.283716              432   9
  147                    m_alltoallv_z                         0.218774              432   9
  148                    map_scatter                           0.340531              432   9
  149            rpromu                                0.752089                      108   5
  150              crrexp_mul_wave                       0.378572                  67392   6
  151              rpromu_gemm                           0.245658                  16848   6
  152        fordep                                0.190265                            1   3
  153          setdij_                               0.189804                          6   4
  154        setdij_                               0.633034                           20   3
  155        set_dd_paw                            0.037209                            1   3
  156        strkin                                0.021294                            1   3
  157        strelo                                0.004825                            1   3
  158        strnlr                               12.062578                            1   3
  159          rspher_all                            0.262847                          9   4
  160          phaser                                0.741078                         54   4
  161          rpro_isp                             10.544866                         54   4
  162            fftwav_mpi                            8.326618                     1296   5
  163              fft3d_mpi                             7.474661                   1296   6
  164                fftbas_plan_mpi                       7.470201                 1296   7
  165                  dfftw_execute                         3.593391               3888   8
  166                  map_forward                           3.170695               2592   8
  167                    map_gather                            0.854842             1296   9
  168                    m_alltoallv_z                         0.659338             1296   9
  169                    map_scatter                           1.032823             1296   9
  170            rpromu                                2.208046                      324   5
  171              crrexp_mul_wave                       1.113164                 202176   6
  172              rpromu_gemm                           0.725462                  50544   6
  173        fft3d_mpi                             0.090946                           22   3
  174          fftbas_plan_mpi                       0.086582                         22   4
  175            dfftw_execute                         0.025423                       66   5
  176            map_forward                           0.020576                       20   5
  177              map_gather                            0.001197                     10   6
  178              m_alltoallv_z                         0.014785                     10   6
  179              map_scatter                           0.004425                     10   6
  180            map_backward                          0.023399                       24   5
  181              map_gather                            0.004091                     12   6
  182              m_alltoallv_z                         0.017160                     12   6
  183              map_scatter                           0.001872                     12   6
  184        forhar                                0.203659                            2   3
  185        strehar                               0.005639                            1   3
  186        chggra                                0.016621                            1   3
  187          fft3d_mpi                             0.013653                          3   4
  188            fftbas_plan_mpi                       0.013082                        3   5
  189              dfftw_execute                         0.003593                      9   6
  190              map_forward                           0.005541                      4   6
  191                map_gather                            0.000224                    2   7
  192                m_alltoallv_z                         0.004246                    2   7
  193                map_scatter                           0.000962                    2   7
  194              map_backward                          0.001879                      2   6
  195                map_gather                            0.000359                    1   7
  196                m_alltoallv_z                         0.001347                    1   7
  197                map_scatter                           0.000151                    1   7
  198        brmix                                 0.027915                            1   3
  199          brpre                                 0.000074                          2   4
  200          setg0                                 0.001407                          1   4
  201          broyd                                 0.022198                          1   4
  202            brget                                 0.001895                      224   5
  203            brsav                                 0.000462                       48   5
 
 Flat profile
 ============
 
             routine name                   CPU           calls
 ---------------------------------------------------------------
 eddav                                 638.151702          48
 total_time                            368.369282           1
 dfftw_execute                         207.354349      223521
 redis_pw                              155.432467       67155
 orth1                                 110.615605       73035
 map_scatter                            63.957583       74685
 redis_proj                             54.178908       84552
 map_gather                             54.137992       74685
 m_alltoallv_z                          43.763143       74685
 fftbas_plan_mpi                        43.072506       74509
 fftwav_mpi                             42.292545       48834
 crrexp_mul_work_add                    34.293373     3790332
 racc0                                  31.997646       24297
 map_forward                            28.336971       98962
 vhamil                                 25.915613       24297
 rpro1                                  21.265305       17385
 lincom                                 18.377718         588
 crrexp_mul_wave                        16.649028     3004092
 phaser                                  8.929444         654
 w1_copy                                 7.794275       72891
 force_and_stress                        6.274641           1
 fftext_mpi                              5.943525       24297
 eccp                                    5.364353        6912
 kinhamil                                3.590187       24297
 pw_charge                               3.582300        5280
 setdij_                                 2.264987          72
 soft_charge                             2.077887          44
 apply_precond                           2.019337       17385
 set_charge                              1.696293          44
 overl                                   1.480973       41694
 set_dd_paw                              1.463858          46
 setup_precond                           1.248826        6912
 overl1                                  1.097911       24297
 rpromu_gemm                             1.076397       73008
 fft3d_mpi                               0.602285       74507
 rpromu                                  0.540401         468
 strnlr                                  0.513787           1
 map_backward                            0.513382       50052
 rspher_all                              0.399959          14
 hamiltmu                                0.361315       24297
 broyd                                   0.340131          44
 depsum                                  0.262496          44
 choleski                                0.252797          12
 orthch                                  0.248057           1
 forhar                                  0.203659           2
 raccmu_                                 0.150255       24297
 brmix                                   0.127548          44
 fornlr                                  0.122135           1
 forloc                                  0.113805           1
 w1_projall                              0.108719       17385
 setg0                                   0.065906          46
 brget                                   0.037681        5120
 truncate_high_frequency_w1              0.024646       31209
 strkin                                  0.021294           1
 rpro_isp                                0.016096          78
 brsav                                   0.011828        1174
 brgrid                                  0.011050           1
 strehar                                 0.005639           1
 brpre                                   0.005374          88
 strelo                                  0.004825           1
 chggra                                  0.002968           1
 fordep                                  0.000461           1
 redis_pw_over_bands                     0.000001           1
 ---------------------------------------------------------------
  summed up times    2019.13543009758     
 
 Accumulative profile
 ====================
 
             routine name                   CPU           calls
 ---------------------------------------------------------------
 total_time                           2019.135430           1
 eddav                                1572.367879          48
 fft3d_mpi                             441.678258       74507
 fftbas_plan_mpi                       441.135926       74509
 fftwav_mpi                            341.779255       48834
 hamiltmu                              239.594696       24297
 dfftw_execute                         207.354349      223521
 redis_pw                              155.432467       67155
 kinhamil                              145.778583       24297
 fftext_mpi                            142.188396       24297
 map_forward                           134.367508       98962
 orth1                                 110.615605       73035
 raccmu_                                67.539185       24297
 racc0                                  66.291018       24297
 map_scatter                            63.957583       74685
 map_backward                           56.341564       50052
 redis_proj                             54.178908       84552
 map_gather                             54.137992       74685
 m_alltoallv_z                          43.763143       74685
 set_charge                             43.108219          44
 soft_charge                            40.796482          44
 w1_projall                             36.408221       17385
 rpro1                                  36.299502       17385
 crrexp_mul_work_add                    34.293373     3790332
 vhamil                                 25.915613       24297
 force_and_stress                       24.629073           1
 lincom                                 18.377718         588
 crrexp_mul_wave                        16.649028     3004092
 rpro_isp                               15.326393          78
 strnlr                                 12.062578           1
 phaser                                  8.929444         654
 w1_copy                                 7.794275       72891
 eccp                                    5.364353        6912
 fornlr                                  3.988543           1
 pw_charge                               3.582300        5280
 rpromu                                  3.231628         468
 setdij_                                 2.264987          72
 apply_precond                           2.019337       17385
 orthch                                  1.624946           1
 overl                                   1.480973       41694
 set_dd_paw                              1.463858          46
 setup_precond                           1.248826        6912
 overl1                                  1.097911       24297
 rpromu_gemm                             1.076397       73008
 brmix                                   0.588468          44
 rspher_all                              0.399959          14
 broyd                                   0.389640          44
 depsum                                  0.262496          44
 choleski                                0.252797          12
 forhar                                  0.203659           2
 fordep                                  0.190265           1
 forloc                                  0.113805           1
 setg0                                   0.065906          46
 brget                                   0.037681        5120
 truncate_high_frequency_w1              0.024646       31209
 strkin                                  0.021294           1
 chggra                                  0.016621           1
 brsav                                   0.011828        1174
 brgrid                                  0.011050           1
 strehar                                 0.005639           1
 brpre                                   0.005374          88
 strelo                                  0.004825           1
 redis_pw_over_bands                     0.000001           1
 ---------------------------------------------------------------
 
Profiling took   4.788338  2.715459  0.012329  0.011859 seconds
Profiling took   5.637383 seconds
