       N       E                     dE             d eps       ncg     rms          rms(c)
DAV:   1     0.464333029154E+04    0.46433E+04   -0.31053E+05 10752   0.159E+03
DAV:   2    -0.682109155831E+03   -0.53254E+04   -0.51272E+04 13344   0.352E+02
DAV:   3    -0.127231001457E+04   -0.59020E+03   -0.58173E+03 12960   0.126E+02
DAV:   4    -0.129301092972E+04   -0.20701E+02   -0.20504E+02 13920   0.283E+01
DAV:   5    -0.129375261044E+04   -0.74168E+00   -0.74040E+00 15328   0.489E+00    0.887E+01
DAV:   6    -0.154848948895E+04   -0.25474E+03   -0.30453E+03 17024   0.990E+01    0.238E+02
DAV:   7    -0.145219661081E+04    0.96293E+02   -0.27855E+02 12576   0.311E+01    0.153E+02
DAV:   8    -0.115897016943E+04    0.29323E+03   -0.26359E+02 15200   0.868E+01    0.515E+01
DAV:   9    -0.119443181600E+04   -0.35462E+02   -0.63995E+02 16064   0.758E+01    0.700E+01
DAV:  10    -0.118020680764E+04    0.14225E+02   -0.72216E+02 15072   0.258E+01    0.569E+01
DAV:  11    -0.116730763949E+04    0.12899E+02   -0.29256E+02 15424   0.345E+01    0.515E+01
DAV:  12    -0.115363729637E+04    0.13670E+02   -0.16147E+02 14560   0.184E+01    0.243E+01
DAV:  13    -0.115450365197E+04   -0.86636E+00   -0.30613E+01 15328   0.151E+01    0.298E+01
DAV:  14    -0.115502315915E+04   -0.51951E+00   -0.46716E+01 15712   0.124E+01    0.270E+01
DAV:  15    -0.115604040558E+04   -0.10172E+01   -0.30063E+01 14432   0.674E+00    0.250E+01
DAV:  16    -0.115642407744E+04   -0.38367E+00   -0.79898E+00 15136   0.523E+00    0.199E+01
DAV:  17    -0.115639440774E+04    0.29670E-01   -0.32109E-01 13984   0.145E+00    0.210E+01
DAV:  18    -0.115567762704E+04    0.71678E+00   -0.15946E-01 13984   0.138E+00    0.204E+01
DAV:  19    -0.115639105282E+04   -0.71343E+00   -0.14317E-01 12832   0.109E+00    0.206E+01
DAV:  20    -0.116016084299E+04   -0.37698E+01   -0.71055E+00 13376   0.453E+00    0.175E+01
DAV:  21    -0.116102492349E+04   -0.86408E+00   -0.42938E-01 14432   0.153E+00    0.176E+01
DAV:  22    -0.116306658219E+04   -0.20417E+01   -0.11968E+00 13728   0.371E+00    0.156E+01
DAV:  23    -0.116433742446E+04   -0.12708E+01   -0.52899E+00 14272   0.672E+00    0.153E+01
DAV:  24    -0.116484649438E+04   -0.50907E+00   -0.14416E+00 14304   0.245E+00    0.154E+01
DAV:  25    -0.116483530574E+04    0.11189E-01   -0.20022E-01 14656   0.128E+00    0.154E+01
DAV:  26    -0.116458254673E+04    0.25276E+00   -0.76542E-01 15616   0.165E+00    0.150E+01
DAV:  27    -0.116489783734E+04   -0.31529E+00   -0.78307E-01 15392   0.353E+00    0.138E+01
DAV:  28    -0.116526905201E+04   -0.37121E+00   -0.67782E-01 15392   0.268E+00    0.141E+01
DAV:  29    -0.116591692976E+04   -0.64788E+00   -0.91518E-01 15264   0.243E+00    0.146E+01
DAV:  30    -0.116603477056E+04   -0.11784E+00   -0.58644E-01 14688   0.185E+00    0.118E+01
DAV:  31    -0.116641267724E+04   -0.37791E+00   -0.20836E-01 14176   0.172E+00    0.109E+01
DAV:  32    -0.116653934686E+04   -0.12667E+00   -0.19057E-01 14208   0.101E+00    0.111E+01
DAV:  33    -0.116664249756E+04   -0.10315E+00   -0.89588E-02 14976   0.879E-01    0.108E+01
DAV:  34    -0.116700997632E+04   -0.36748E+00   -0.15740E-01 14080   0.121E+00    0.958E+00
DAV:  35    -0.116741512985E+04   -0.40515E+00   -0.24746E-01 14624   0.168E+00    0.707E+00
DAV:  36    -0.116748484857E+04   -0.69719E-01   -0.96629E-02 15040   0.103E+00    0.574E+00
DAV:  37    -0.116747429751E+04    0.10551E-01   -0.31598E-02 15264   0.716E-01    0.505E+00
DAV:  38    -0.116743993500E+04    0.34363E-01   -0.27483E-02 15808   0.880E-01    0.430E+00
DAV:  39    -0.116740592688E+04    0.34008E-01   -0.27247E-02 14656   0.643E-01    0.385E+00
DAV:  40    -0.116738051746E+04    0.25409E-01   -0.16811E-02 15552   0.562E-01    0.333E+00
DAV:  41    -0.116734863394E+04    0.31884E-01   -0.10876E-02 16384   0.680E-01    0.281E+00
DAV:  42    -0.116732096259E+04    0.27671E-01   -0.17370E-02 16320   0.824E-01    0.221E+00
DAV:  43    -0.116731293968E+04    0.80229E-02   -0.27135E-02 15904   0.940E-01    0.165E+00
DAV:  44    -0.116731748880E+04   -0.45491E-02   -0.18104E-02 14528   0.347E-01    0.155E+00
DAV:  45    -0.116731843358E+04   -0.94478E-03   -0.42539E-03 16480   0.315E-01    0.134E+00
DAV:  46    -0.116731928315E+04   -0.84957E-03   -0.17078E-03 15040   0.122E-01    0.128E+00
DAV:  47    -0.116732133590E+04   -0.20527E-02   -0.58893E-03 15456   0.336E-01    0.940E-01
DAV:  48    -0.116732108512E+04    0.25078E-03   -0.11467E-03 15232   0.889E-02    0.873E-01
DAV:  49    -0.116732107031E+04    0.14812E-04   -0.45825E-04 16992   0.115E-01    0.784E-01
DAV:  50    -0.116732269181E+04   -0.16215E-02   -0.11299E-03 15488   0.154E-01    0.698E-01
DAV:  51    -0.116732210473E+04    0.58708E-03   -0.13973E-03 15936   0.161E-01    0.529E-01
DAV:  52    -0.116732407887E+04   -0.19741E-02   -0.11128E-03 14944   0.111E-01    0.470E-01
DAV:  53    -0.116732437873E+04   -0.29986E-03   -0.76940E-04 16032   0.101E-01    0.372E-01
DAV:  54    -0.116732481224E+04   -0.43351E-03   -0.13706E-03 15328   0.143E-01    0.279E-01
DAV:  55    -0.116732561820E+04   -0.80596E-03   -0.78711E-04 15136   0.113E-01    0.212E-01
DAV:  56    -0.116732574407E+04   -0.12587E-03   -0.11067E-03 15104   0.159E-01    0.224E-01
DAV:  57    -0.116732587772E+04   -0.13365E-03   -0.36022E-04 14176   0.713E-02    0.152E-01
DAV:  58    -0.116732648530E+04   -0.60758E-03   -0.63114E-04 14688   0.125E-01    0.144E-01
DAV:  59    -0.116732711494E+04   -0.62964E-03   -0.40152E-04 14656   0.746E-02    0.180E-01
DAV:  60    -0.116732723693E+04   -0.12200E-03   -0.12888E-04 13504   0.345E-02    0.174E-01
DAV:  61    -0.116732698004E+04    0.25689E-03   -0.19920E-04 15104   0.669E-02    0.140E-01
DAV:  62    -0.116732693103E+04    0.49017E-04   -0.59790E-05 14496   0.263E-02    0.116E-01
DAV:  63    -0.116732689400E+04    0.37025E-04   -0.24586E-05 15456   0.237E-02    0.954E-02
DAV:  64    -0.116732685299E+04    0.41011E-04   -0.39295E-05 15136   0.285E-02    0.659E-02
DAV:  65    -0.116732683166E+04    0.21333E-04   -0.30802E-05 15744   0.212E-02    0.427E-02
DAV:  66    -0.116732682015E+04    0.11509E-04   -0.90517E-05 15424   0.426E-02    0.233E-02
DAV:  67    -0.116732681880E+04    0.13504E-05   -0.22283E-05 12608   0.138E-02    0.111E-02
DAV:  68    -0.116732681853E+04    0.26690E-06   -0.19861E-06  9056   0.441E-03
   1 F= -.11805949E+04 E0= -.11805882E+04  d E =-.118059E+04  mag=     0.0009
