 vasp.5.4.4.18Apr17-6-g9f103f2a35 (build May 22 2020 17:00:04) complex          
  
 executed on           IFC15_impi date 2020.09.23  13:09:35
 running on  128 total cores
 distrk:  each k-point on  128 cores,    1 groups
 distr:  one band on NCORES_PER_BAND=   4 cores,   32 groups


--------------------------------------------------------------------------------------------------------


 INCAR:
 POTCAR:    PAW_PBE C 08Apr2002                   
 POTCAR:    PAW_PBE Co 02Aug2007                  
 POTCAR:    PAW_PBE H 15Jun2001                   
 POTCAR:    PAW_PBE N 08Apr2002                   
 POTCAR:    PAW_PBE O 08Apr2002                   

 ----------------------------------------------------------------------------- 
|                                                                             |
|           W    W    AA    RRRRR   N    N  II  N    N   GGGG   !!!           |
|           W    W   A  A   R    R  NN   N  II  NN   N  G    G  !!!           |
|           W    W  A    A  R    R  N N  N  II  N N  N  G       !!!           |
|           W WW W  AAAAAA  RRRRR   N  N N  II  N  N N  G  GGG   !            |
|           WW  WW  A    A  R   R   N   NN  II  N   NN  G    G                |
|           W    W  A    A  R    R  N    N  II  N    N   GGGG   !!!           |
|                                                                             |
|      For optimal performance we recommend to set                            |
|        NCORE= 4 - approx SQRT( number of cores)                             |
|      NCORE specifies how many cores store one orbital (NPAR=cpu/NCORE).     |
|      This setting can  greatly improve the performance of VASP for DFT.     |
|      The default,   NCORE=1            might be grossly inefficient         |
|      on modern multi-core architectures or massively parallel machines.     |
|      Do your own testing !!!!                                               |
|      Unfortunately you need to use the default for GW and RPA calculations. |
|      (for HF NCORE is supported but not extensively tested yet)             |
|                                                                             |
 ----------------------------------------------------------------------------- 

 POTCAR:    PAW_PBE C 08Apr2002                   
   VRHFIN =C: s2p2                                                              
   LEXCH  = PE                                                                  
   EATOM  =   147.1560 eV,   10.8157 Ry                                         
                                                                                
   TITEL  = PAW_PBE C 08Apr2002                                                 
   LULTRA =        F    use ultrasoft PP ?                                      
   IUNSCR =        1    unscreen: 0-lin 1-nonlin 2-no                           
   RPACOR =    1.200    partial core radius                                     
   POMASS =   12.011; ZVAL   =    4.000    mass and valenz                      
   RCORE  =    1.500    outmost cutoff radius                                   
   RWIGS  =    1.630; RWIGS  =    0.863    wigner-seitz radius (au A)           
   ENMAX  =  400.000; ENMIN  =  300.000 eV                                      
   ICORE  =        2    local potential                                         
   LCOR   =        T    correct aug charges                                     
   LPAW   =        T    paw PP                                                  
   EAUG   =  644.873                                                            
   DEXC   =    0.000                                                            
   RMAX   =    1.529    core radius for proj-oper                               
   RAUG   =    1.300    factor for augmentation sphere                          
   RDEP   =    1.501    radius for radial grids                                 
   RDEPT  =    1.300    core radius for aug-charge                              
                                                                                
   Atomic configuration                                                         
    4 entries                                                                   
     n  l   j            E        occ.                                          
     1  0  0.50      -273.3789   2.0000                                         
     2  0  0.50       -13.7508   2.0000                                         
     2  1  0.50        -5.2854   2.0000                                         
     3  2  1.50        -5.4423   0.0000                                         
   Description                                                                  
     l       E           TYP  RCUT    TYP  RCUT                                 
     0    -13.7508458     23  1.200                                             
     0     -8.2022199     23  1.200                                             
     1     -5.2854383     23  1.500                                             
     1     34.0145650     23  1.500                                             
     2     -5.4423304      7  1.500                                             
  local pseudopotential read in
  partial core-charges read in
  partial kinetic energy density read in
  atomic valenz-charges read in
  non local Contribution for L=           0  read in
    real space projection operators read in
  non local Contribution for L=           0  read in
    real space projection operators read in
  non local Contribution for L=           1  read in
    real space projection operators read in
  non local Contribution for L=           1  read in
    real space projection operators read in
    PAW grid and wavefunctions read in
 
   number of l-projection  operators is LMAX  =           4
   number of lm-projection operators is LMMAX =           8
 
 POTCAR:    PAW_PBE Co 02Aug2007                  
   VRHFIN =Co: d8 s1                                                            
   LEXCH  = PE                                                                  
   EATOM  =   813.3670 eV,   59.7808 Ry                                         
                                                                                
   TITEL  = PAW_PBE Co 02Aug2007                                                
   LULTRA =        F    use ultrasoft PP ?                                      
   IUNSCR =        1    unscreen: 0-lin 1-nonlin 2-no                           
   RPACOR =    2.000    partial core radius                                     
   POMASS =   58.933; ZVAL   =    9.000    mass and valenz                      
   RCORE  =    2.300    outmost cutoff radius                                   
   RWIGS  =    2.460; RWIGS  =    1.302    wigner-seitz radius (au A)           
   ENMAX  =  267.968; ENMIN  =  200.976 eV                                      
   RCLOC  =    1.203    cutoff for local pot                                    
   LCOR   =        T    correct aug charges                                     
   LPAW   =        T    paw PP                                                  
   EAUG   =  477.818                                                            
   DEXC   =    0.000                                                            
   RMAX   =    2.360    core radius for proj-oper                               
   RAUG   =    1.300    factor for augmentation sphere                          
   RDEP   =    2.393    radius for radial grids                                 
   RDEPT  =    1.864    core radius for aug-charge                              
                                                                                
   Atomic configuration                                                         
    9 entries                                                                   
     n  l   j            E        occ.                                          
     1  0  0.50     -7587.6674   2.0000                                         
     2  0  0.50      -893.6084   2.0000                                         
     2  1  1.50      -764.5805   6.0000                                         
     3  0  0.50       -97.5973   2.0000                                         
     3  1  1.50       -60.9648   6.0000                                         
     3  2  2.50        -4.2382   8.0000                                         
     4  0  0.50        -4.3746   1.0000                                         
     4  1  1.50        -4.0817   0.0000                                         
     4  3  2.50        -1.3606   0.0000                                         
   Description                                                                  
     l       E           TYP  RCUT    TYP  RCUT                                 
     2     -4.2382362     23  2.300                                             
     2     -5.5988188     23  2.300                                             
     0     -4.3745797     23  2.300                                             
     0      5.7660125     23  2.300                                             
     1     -2.7211652     23  2.300                                             
     1     16.9860234     23  2.300                                             
  local pseudopotential read in
  partial core-charges read in
  partial kinetic energy density read in
  atomic valenz-charges read in
  non local Contribution for L=           2  read in
    real space projection operators read in
  non local Contribution for L=           2  read in
    real space projection operators read in
  non local Contribution for L=           0  read in
    real space projection operators read in
  non local Contribution for L=           0  read in
    real space projection operators read in
  non local Contribution for L=           1  read in
    real space projection operators read in
  non local Contribution for L=           1  read in
    real space projection operators read in
    PAW grid and wavefunctions read in
 
   number of l-projection  operators is LMAX  =           6
   number of lm-projection operators is LMMAX =          18
 
 POTCAR:    PAW_PBE H 15Jun2001                   
   VRHFIN =H: ultrasoft test                                                    
   LEXCH  = PE                                                                  
   EATOM  =    12.4884 eV,    0.9179 Ry                                         
                                                                                
   TITEL  = PAW_PBE H 15Jun2001                                                 
   LULTRA =        F    use ultrasoft PP ?                                      
   IUNSCR =        0    unscreen: 0-lin 1-nonlin 2-no                           
   RPACOR =    0.000    partial core radius                                     
   POMASS =    1.000; ZVAL   =    1.000    mass and valenz                      
   RCORE  =    1.100    outmost cutoff radius                                   
   RWIGS  =    0.700; RWIGS  =    0.370    wigner-seitz radius (au A)           
   ENMAX  =  250.000; ENMIN  =  200.000 eV                                      
   RCLOC  =    0.701    cutoff for local pot                                    
   LCOR   =        T    correct aug charges                                     
   LPAW   =        T    paw PP                                                  
   EAUG   =  400.000                                                            
   RMAX   =    1.123    core radius for proj-oper                               
   RAUG   =    1.200    factor for augmentation sphere                          
   RDEP   =    1.112    radius for radial grids                                 
   RDEPT  =    0.926    core radius for aug-charge                              
                                                                                
   Atomic configuration                                                         
    2 entries                                                                   
     n  l   j            E        occ.                                          
     1  0  0.50        -6.4927   1.0000                                         
     2  1  0.50        -3.4015   0.0000                                         
   Description                                                                  
     l       E           TYP  RCUT    TYP  RCUT                                 
     0     -6.4927494     23  1.100                                             
     0      6.8029130     23  1.100                                             
     1     -4.0817478     23  1.100                                             
  local pseudopotential read in
  atomic valenz-charges read in
  non local Contribution for L=           0  read in
    real space projection operators read in
  non local Contribution for L=           0  read in
    real space projection operators read in
  non local Contribution for L=           1  read in
    real space projection operators read in
    PAW grid and wavefunctions read in
 
   number of l-projection  operators is LMAX  =           3
   number of lm-projection operators is LMMAX =           5
 
 POTCAR:    PAW_PBE N 08Apr2002                   
   VRHFIN =N: s2p3                                                              
   LEXCH  = PE                                                                  
   EATOM  =   264.5486 eV,   19.4438 Ry                                         
                                                                                
   TITEL  = PAW_PBE N 08Apr2002                                                 
   LULTRA =        F    use ultrasoft PP ?                                      
   IUNSCR =        1    unscreen: 0-lin 1-nonlin 2-no                           
   RPACOR =    1.200    partial core radius                                     
   POMASS =   14.001; ZVAL   =    5.000    mass and valenz                      
   RCORE  =    1.500    outmost cutoff radius                                   
   RWIGS  =    1.400; RWIGS  =    0.741    wigner-seitz radius (au A)           
   ENMAX  =  400.000; ENMIN  =  300.000 eV                                      
   ICORE  =        2    local potential                                         
   LCOR   =        T    correct aug charges                                     
   LPAW   =        T    paw PP                                                  
   EAUG   =  627.112                                                            
   DEXC   =    0.000                                                            
   RMAX   =    1.529    core radius for proj-oper                               
   RAUG   =    1.300    factor for augmentation sphere                          
   RDEP   =    1.514    radius for radial grids                                 
   RDEPT  =    1.338    core radius for aug-charge                              
                                                                                
   Atomic configuration                                                         
    4 entries                                                                   
     n  l   j            E        occ.                                          
     1  0  0.50      -384.7179   2.0000                                         
     2  0  0.50       -18.5828   2.0000                                         
     2  1  0.50        -7.0898   3.0000                                         
     3  2  1.50        -6.8029   0.0000                                         
   Description                                                                  
     l       E           TYP  RCUT    TYP  RCUT                                 
     0    -18.5828119     23  1.200                                             
     0    -13.5018863     23  1.200                                             
     1     -7.0897853     23  1.500                                             
     1      9.5240782     23  1.500                                             
     2     -6.8029130      7  1.500                                             
  local pseudopotential read in
  partial core-charges read in
  partial kinetic energy density read in
  atomic valenz-charges read in
  non local Contribution for L=           0  read in
    real space projection operators read in
  non local Contribution for L=           0  read in
    real space projection operators read in
  non local Contribution for L=           1  read in
    real space projection operators read in
  non local Contribution for L=           1  read in
    real space projection operators read in
    PAW grid and wavefunctions read in
 
   number of l-projection  operators is LMAX  =           4
   number of lm-projection operators is LMMAX =           8
 
 POTCAR:    PAW_PBE O 08Apr2002                   
   VRHFIN =O: s2p4                                                              
   LEXCH  = PE                                                                  
   EATOM  =   432.3788 eV,   31.7789 Ry                                         
                                                                                
   TITEL  = PAW_PBE O 08Apr2002                                                 
   LULTRA =        F    use ultrasoft PP ?                                      
   IUNSCR =        1    unscreen: 0-lin 1-nonlin 2-no                           
   RPACOR =    1.200    partial core radius                                     
   POMASS =   16.000; ZVAL   =    6.000    mass and valenz                      
   RCORE  =    1.520    outmost cutoff radius                                   
   RWIGS  =    1.550; RWIGS  =    0.820    wigner-seitz radius (au A)           
   ENMAX  =  400.000; ENMIN  =  300.000 eV                                      
   ICORE  =        2    local potential                                         
   LCOR   =        T    correct aug charges                                     
   LPAW   =        T    paw PP                                                  
   EAUG   =  605.392                                                            
   DEXC   =    0.000                                                            
   RMAX   =    1.553    core radius for proj-oper                               
   RAUG   =    1.300    factor for augmentation sphere                          
   RDEP   =    1.550    radius for radial grids                                 
   RDEPT  =    1.329    core radius for aug-charge                              
                                                                                
   Atomic configuration                                                         
    4 entries                                                                   
     n  l   j            E        occ.                                          
     1  0  0.50      -514.6923   2.0000                                         
     2  0  0.50       -23.9615   2.0000                                         
     2  1  0.50        -9.0305   4.0000                                         
     3  2  1.50        -9.5241   0.0000                                         
   Description                                                                  
     l       E           TYP  RCUT    TYP  RCUT                                 
     0    -23.9615318     23  1.200                                             
     0     -9.5240782     23  1.200                                             
     1     -9.0304911     23  1.520                                             
     1      8.1634956     23  1.520                                             
     2     -9.5240782      7  1.500                                             
  local pseudopotential read in
  partial core-charges read in
  partial kinetic energy density read in
  kinetic energy density of atom read in
  atomic valenz-charges read in
  non local Contribution for L=           0  read in
    real space projection operators read in
  non local Contribution for L=           0  read in
    real space projection operators read in
  non local Contribution for L=           1  read in
    real space projection operators read in
  non local Contribution for L=           1  read in
    real space projection operators read in
    PAW grid and wavefunctions read in
 
   number of l-projection  operators is LMAX  =           4
   number of lm-projection operators is LMMAX =           8
 
 Optimization of the real space projectors (new method)

 maximal supplied QI-value         = 25.13
 optimisation between [QCUT,QGAM] = [ 12.32, 24.88] = [ 42.47,173.37] Ry 
 Optimized for a Real-space Cutoff    1.06 Angstroem

   l    n(q)    QCUT    max X(q) W(low)/X(q) W(high)/X(q)  e(spline) 
   0      8    12.315   115.676    0.34E-03    0.18E-03    0.23E-06
   0      8    12.315    87.132    0.34E-03    0.18E-03    0.22E-06
   1      7    12.315     4.429    0.45E-03    0.12E-03    0.18E-06
   1      7    12.315     2.733    0.35E-03    0.97E-04    0.15E-06
 Optimization of the real space projectors (new method)

 maximal supplied QI-value         = 16.25
 optimisation between [QCUT,QGAM] = [ 12.51, 25.03] = [ 43.85,175.40] Ry 
 Optimized for a Real-space Cutoff    1.31 Angstroem

   l    n(q)    QCUT    max X(q) W(low)/X(q) W(high)/X(q)  e(spline) 
   2      9    12.514    65.824    0.30E-03    0.46E-03    0.43E-06
   2      9    12.514    61.429    0.31E-03    0.46E-03    0.44E-06
   0     10    12.514    56.174    0.90E-04    0.33E-03    0.30E-06
   0     10    12.514    31.263    0.81E-04    0.30E-03    0.28E-06
   1      9    12.514    19.828    0.38E-03    0.65E-04    0.24E-06
   1      9    12.514    15.139    0.32E-03    0.60E-04    0.20E-06
 Optimization of the real space projectors (new method)

 maximal supplied QI-value         = 34.20
 optimisation between [QCUT,QGAM] = [ 12.31, 24.97] = [ 42.46,174.58] Ry 
 Optimized for a Real-space Cutoff    1.00 Angstroem

   l    n(q)    QCUT    max X(q) W(low)/X(q) W(high)/X(q)  e(spline) 
   0      7    12.313    19.460    0.14E-03    0.42E-03    0.16E-06
   0      7    12.313    12.209    0.12E-03    0.40E-03    0.16E-06
   1      7    12.313     4.655    0.33E-03    0.59E-03    0.89E-07
 Optimization of the real space projectors (new method)

 maximal supplied QI-value         = 25.13
 optimisation between [QCUT,QGAM] = [ 12.32, 24.88] = [ 42.47,173.37] Ry 
 Optimized for a Real-space Cutoff    1.20 Angstroem

   l    n(q)    QCUT    max X(q) W(low)/X(q) W(high)/X(q)  e(spline) 
   0      9    12.315    79.467    0.14E-03    0.22E-04    0.37E-06
   0      9    12.315    66.151    0.14E-03    0.23E-04    0.36E-06
   1      8    12.315    22.077    0.30E-03    0.54E-03    0.45E-06
   1      8    12.315    15.894    0.30E-03    0.55E-03    0.45E-06
 Optimization of the real space projectors (new method)

 maximal supplied QI-value         = 24.76
 optimisation between [QCUT,QGAM] = [ 12.38, 25.00] = [ 42.90,175.06] Ry 
 Optimized for a Real-space Cutoff    1.13 Angstroem

   l    n(q)    QCUT    max X(q) W(low)/X(q) W(high)/X(q)  e(spline) 
   0      8    12.378    20.381    0.16E-03    0.54E-05    0.27E-06
   0      8    12.378    15.268    0.17E-03    0.61E-05    0.29E-06
   1      8    12.378     5.964    0.38E-03    0.23E-03    0.28E-06
   1      8    12.378     5.382    0.33E-03    0.20E-03    0.25E-06
  PAW_PBE C 08Apr2002                   :
 energy of atom  1       EATOM= -147.1560
 kinetic energy error for atom=    0.0057 (will be added to EATOM!!)
  PAW_PBE Co 02Aug2007                  :
 energy of atom  2       EATOM= -813.3670
 kinetic energy error for atom=    0.0018 (will be added to EATOM!!)
  PAW_PBE H 15Jun2001                   :
 energy of atom  3       EATOM=  -12.4884
 kinetic energy error for atom=    0.0004 (will be added to EATOM!!)
  PAW_PBE N 08Apr2002                   :
 energy of atom  4       EATOM= -264.5486
 kinetic energy error for atom=    0.0103 (will be added to EATOM!!)
  PAW_PBE O 08Apr2002                   :
 energy of atom  5       EATOM= -432.3788
 kinetic energy error for atom=    0.0168 (will be added to EATOM!!)
 
 
 POSCAR: Co_D                                    
  positions in direct lattice
  velocities in cartesian coordinates
 exchange correlation table for  LEXCH =        8
   RHO(1)=    0.500       N(1)  =     2000
   RHO(2)=  100.500       N(2)  =     4000
 


--------------------------------------------------------------------------------------------------------


 ion  position               nearest neighbor table
   1  0.892  0.956  0.138- 107 1.08 117 1.34  65 1.40
   2  0.777  0.950  0.425- 112 1.09 118 1.36  65 1.40
   3  0.893  0.797  0.888- 116 1.08 119 1.34  66 1.40
   4  0.609  0.456  0.637- 110 1.08 120 1.34  67 1.40
   5  0.722  0.303  0.101- 111 1.09 121 1.36  68 1.40
   6  0.216  0.803  0.102- 115 1.09 122 1.36  69 1.40
   7  0.722  0.450  0.925- 101 1.09 123 1.36  67 1.40
   8  0.607  0.297  0.388- 113 1.08 124 1.34  68 1.40
   9  0.285  0.451  0.425- 114 1.09 125 1.36  70 1.40
  10  0.102  0.798  0.389- 104 1.08 126 1.34  69 1.40
  11  0.215  0.951  0.925- 105 1.09 127 1.36  71 1.40
  12  0.284  0.303  0.601- 102 1.09 128 1.36  72 1.40
  13  0.778  0.803  0.601- 108 1.09 129 1.36  66 1.40
  14  0.101  0.956  0.637- 109 1.08 130 1.34  71 1.40
  15  0.398  0.298  0.889- 106 1.08 131 1.34  72 1.40
  16  0.399  0.456  0.137- 103 1.08 132 1.34  70 1.40
  17  0.693  0.031  0.131- 141 1.23 133 1.42  33 1.48
  18  0.830  0.048  0.458- 142 1.23 133 1.41  34 1.48
  19  0.831  0.705  0.569- 143 1.23 134 1.41  35 1.48
  20  0.670  0.548  0.958- 144 1.23 135 1.41  36 1.48
  21  0.669  0.205  0.068- 145 1.23 136 1.41  37 1.48
  22  0.303  0.723  0.397- 146 1.23 137 1.42  38 1.48
  23  0.807  0.531  0.630- 147 1.23 135 1.42  39 1.48
  24  0.806  0.222  0.396- 148 1.23 136 1.42  40 1.48
  25  0.199  0.531  0.129- 149 1.23 138 1.42  41 1.48
  26  0.167  0.705  0.070- 150 1.23 137 1.41  42 1.48
  27  0.164  0.049  0.957- 151 1.23 139 1.41  43 1.48
  28  0.334  0.205  0.569- 152 1.23 140 1.41  44 1.48
  29  0.694  0.722  0.896- 153 1.23 134 1.42  45 1.48
  30  0.301  0.031  0.629- 154 1.23 139 1.42  46 1.48
  31  0.197  0.223  0.897- 155 1.23 140 1.42  47 1.48
  32  0.336  0.549  0.457- 156 1.23 138 1.41  48 1.48
  33  0.689  0.076  0.117-  49 1.39  73 1.41  17 1.48
  34  0.818  0.093  0.442-  50 1.39  73 1.41  18 1.48
  35  0.819  0.661  0.584-  51 1.39  74 1.41  19 1.48
  36  0.682  0.593  0.942-  52 1.39  75 1.41  20 1.48
  37  0.681  0.161  0.084-  53 1.39  76 1.41  21 1.48
  38  0.309  0.678  0.410-  54 1.39  77 1.41  22 1.48
  39  0.811  0.576  0.617-  55 1.39  75 1.41  23 1.48
  40  0.810  0.177  0.409-  56 1.39  76 1.41  24 1.48
  41  0.193  0.576  0.117-  57 1.39  78 1.41  25 1.48
  42  0.181  0.661  0.085-  58 1.39  77 1.41  26 1.48
  43  0.178  0.093  0.942-  59 1.39  79 1.41  27 1.48
  44  0.319  0.161  0.584-  60 1.39  80 1.41  28 1.48
  45  0.690  0.677  0.909-  61 1.39  74 1.41  29 1.48
  46  0.307  0.076  0.617-  62 1.39  79 1.41  30 1.48
  47  0.191  0.178  0.909-  63 1.39  80 1.41  31 1.48
  48  0.322  0.593  0.442-  64 1.39  78 1.41  32 1.48
  49  0.625  0.089  0.951-  88 1.09  33 1.39  53 1.40
  50  0.878  0.122  0.592-  99 1.09  34 1.39  56 1.40
  51  0.879  0.631  0.434-  93 1.09  35 1.39  55 1.40
  52  0.622  0.622  0.092-  90 1.09  36 1.39  61 1.40
  53  0.621  0.131  0.934-  98 1.09  37 1.39  49 1.40
  54  0.374  0.665  0.577-  96 1.09  38 1.39  64 1.40
  55  0.875  0.589  0.450-  86 1.09  39 1.39  51 1.40
  56  0.873  0.164  0.576-  87 1.09  40 1.39  50 1.40
  57  0.129  0.589  0.950-  95 1.09  41 1.39  58 1.40
  58  0.122  0.631  0.934-  91 1.09  42 1.39  57 1.40
  59  0.120  0.123  0.092-  92 1.09  43 1.39  63 1.40
  60  0.378  0.131  0.434-  85 1.09  44 1.39  62 1.40
  61  0.627  0.664  0.076-  89 1.09  45 1.39  52 1.40
  62  0.371  0.089  0.450- 100 1.09  46 1.39  60 1.40
  63  0.126  0.165  0.076-  94 1.09  47 1.39  59 1.40
  64  0.380  0.623  0.592-  97 1.09  48 1.39  54 1.40
  65  0.803  0.978  0.290-   1 1.40   2 1.40 133 1.42
  66  0.805  0.776  0.737-   3 1.40  13 1.40 134 1.42
  67  0.697  0.478  0.789-   4 1.40   7 1.40 135 1.42
  68  0.696  0.276  0.236-   8 1.40   5 1.40 136 1.42
  69  0.191  0.776  0.238-  10 1.40   6 1.40 137 1.42
  70  0.311  0.478  0.289-  16 1.40   9 1.40 138 1.42
  71  0.189  0.978  0.789-  14 1.40  11 1.40 139 1.42
  72  0.309  0.276  0.737-  15 1.40  12 1.40 140 1.42
  73  0.751  0.105  0.272-  33 1.41  34 1.41  76 1.43
  74  0.753  0.648  0.755-  45 1.41  35 1.41  75 1.43
  75  0.749  0.605  0.772-  39 1.41  36 1.41  74 1.43
  76  0.748  0.148  0.255-  40 1.41  37 1.41  73 1.43
  77  0.248  0.648  0.255-  38 1.41  42 1.41  78 1.43
  78  0.254  0.606  0.271-  41 1.41  48 1.41  77 1.43
  79  0.246  0.106  0.771-  46 1.41  43 1.41  80 1.43
  80  0.252  0.148  0.755-  47 1.41  44 1.41  79 1.43
  81  0.042  0.877  0.013- 119 1.96 117 1.96 122 1.97 127 1.97
  82  0.952  0.877  0.514- 130 1.96 126 1.96 129 1.97 118 1.97
  83  0.458  0.377  0.513- 124 1.96 120 1.96 125 1.97 128 1.97
  84  0.548  0.377  0.013- 132 1.96 131 1.96 121 1.97 123 1.97
  85  0.428  0.141  0.303-  60 1.09
  86  0.920  0.566  0.332-  55 1.09
  87  0.918  0.188  0.694-  56 1.09
  88  0.580  0.066  0.833-  49 1.09
  89  0.582  0.688  0.195-  61 1.09
  90  0.572  0.612  0.223-  52 1.09
  91  0.072  0.641  0.804-  58 1.09
  92  0.069  0.113  0.222-  59 1.09
  93  0.930  0.642  0.304-  51 1.09
  94  0.083  0.188  0.195-  63 1.09
  95  0.085  0.566  0.831-  57 1.09
  96  0.418  0.688  0.695-  54 1.09
  97  0.431  0.613  0.723-  64 1.09
  98  0.570  0.142  0.804-  53 1.09
  99  0.928  0.112  0.723-  50 1.09
 100  0.415  0.065  0.331-  62 1.09
 101  0.782  0.455  0.067-   7 1.09
 102  0.224  0.299  0.459-  12 1.09
 103  0.443  0.467  0.004-  16 1.08
 104  0.058  0.787  0.522-  10 1.08
 105  0.275  0.955  0.067-  11 1.09
 106  0.442  0.287  0.021-  15 1.08
 107  0.936  0.967  0.005-   1 1.08
 108  0.718  0.799  0.460-  13 1.09
 109  0.057  0.967  0.505-  14 1.08
 110  0.564  0.467  0.505-   4 1.08
 111  0.782  0.299  0.959-   5 1.09
 112  0.718  0.955  0.567-   2 1.09
 113  0.562  0.287  0.521-   8 1.08
 114  0.225  0.455  0.567-   9 1.09
 115  0.276  0.799  0.960-   6 1.09
 116  0.938  0.787  0.021-   3 1.08
 117  0.919  0.918  0.181-   1 1.34 118 1.38  81 1.96
 118  0.849  0.914  0.358-   2 1.36 117 1.38  82 1.97
 119  0.920  0.835  0.845-   3 1.34 129 1.38  81 1.96
 120  0.581  0.418  0.681-   4 1.34 123 1.38  83 1.96
 121  0.651  0.339  0.168-   5 1.36 124 1.38  84 1.97
 122  0.145  0.839  0.169-   6 1.36 126 1.38  81 1.97
 123  0.651  0.414  0.858-   7 1.36 120 1.38  84 1.97
 124  0.580  0.335  0.345-   8 1.34 121 1.38  83 1.96
 125  0.356  0.415  0.358-   9 1.36 132 1.38  83 1.97
 126  0.074  0.835  0.346-  10 1.34 122 1.38  82 1.96
 127  0.144  0.915  0.858-  11 1.36 130 1.38  81 1.97
 128  0.355  0.339  0.668-  12 1.36 131 1.38  83 1.97
 129  0.849  0.839  0.668-  13 1.36 119 1.38  82 1.97
 130  0.074  0.918  0.681-  14 1.34 127 1.38  82 1.96
 131  0.426  0.335  0.845-  15 1.34 128 1.38  84 1.96
 132  0.426  0.418  0.181-  16 1.34 125 1.38  84 1.96
 133  0.767  0.020  0.300-  18 1.41  17 1.42  65 1.42
 134  0.768  0.733  0.727-  19 1.41  29 1.42  66 1.42
 135  0.733  0.520  0.799-  20 1.41  23 1.42  67 1.42
 136  0.732  0.233  0.227-  21 1.41  24 1.42  68 1.42
 137  0.228  0.734  0.228-  26 1.41  22 1.42  69 1.42
 138  0.274  0.520  0.298-  32 1.41  25 1.42  70 1.42
 139  0.226  0.020  0.798-  27 1.41  30 1.42  71 1.42
 140  0.272  0.234  0.728-  28 1.41  31 1.42  72 1.42
 141  0.638  0.005  0.001-  17 1.23
 142  0.893  0.036  0.600-  18 1.23
 143  0.895  0.717  0.427-  19 1.23
 144  0.607  0.536  0.100-  20 1.23
 145  0.606  0.217  0.927-  21 1.23
 146  0.357  0.749  0.527-  22 1.23
 147  0.862  0.505  0.501-  23 1.23
 148  0.861  0.248  0.525-  24 1.23
 149  0.145  0.505  0.999-  25 1.23
 150  0.103  0.717  0.928-  26 1.23
 151  0.100  0.037  0.098-  27 1.23
 152  0.398  0.217  0.428-  28 1.23
 153  0.639  0.748  0.025-  29 1.23
 154  0.355  0.005  0.499-  30 1.23
 155  0.143  0.249  0.026-  31 1.23
 156  0.400  0.537  0.598-  32 1.23
 

IMPORTANT INFORMATION: All symmetrisations will be switched off!
NOSYMM: (Re-)initialisation of all symmetry stuff for point group C_1.

 
 

Automatic generation of k-mesh.
 generate k-points for:    3    1    4
Space group operators:
 irot       det(A)        alpha          n_x          n_y          n_z        tau_x        tau_y        tau_z
    1     1.000000     0.000001     1.000000     0.000000     0.000000     0.000000     0.000000     0.000000
 
 Subroutine IBZKPT returns following result:
 ===========================================
 
 Found      7 irreducible k-points:
 
 Following reciprocal coordinates:
            Coordinates               Weight
  0.000000  0.000000  0.000000      1.000000
  0.333333  0.000000  0.000000      2.000000
 -0.000000 -0.000000  0.250000      2.000000
  0.333333 -0.000000  0.250000      2.000000
 -0.333333 -0.000000  0.250000      2.000000
 -0.000000 -0.000000  0.500000      1.000000
  0.333333 -0.000000  0.500000      2.000000
 
 Following cartesian coordinates:
            Coordinates               Weight
  0.000000  0.000000  0.000000      1.000000
  0.036864 -0.000003 -0.000007      2.000000
 -0.000001  0.002957  0.037527      2.000000
  0.036862  0.002954  0.037520      2.000000
 -0.036865  0.002959  0.037534      2.000000
 -0.000003  0.005913  0.075054      1.000000
  0.036861  0.005910  0.075047      2.000000
 


--------------------------------------------------------------------------------------------------------




 Dimension of arrays:
   k-points           NKPTS =      7   k-points in BZ     NKDIM =      7   number of bands    NBANDS=    384
   number of dos      NEDOS =    301   number of ions     NIONS =    156
   non local maximal  LDIM  =      6   non local SUM 2l+1 LMDIM =     18
   total plane-waves  NPLWV = 423360
   max r-space proj   IRMAX =   2059   max aug-charges    IRDMAX=   8678
   dimension x,y,z NGX =    54 NGY =  196 NGZ =   40
   dimension x,y,z NGXF=   108 NGYF=  392 NGZF=   80
   support grid    NGXF=   108 NGYF=  392 NGZF=   80
   ions per type =              80   4  32  24  16
   NGX,Y,Z   is equivalent  to a cutoff of   9.93,  9.94,  9.88 a.u.
   NGXF,Y,Z  is equivalent  to a cutoff of  19.86, 19.87, 19.77 a.u.

 SYSTEM =  flex_MOF                                
 POSCAR =  Co_D                                    

 Startparameter for this run:
   NWRITE =      2    write-flag & timer
   PREC   = normal    normal or accurate (medium, high low for compatibility)
   ISTART =      0    job   : 0-new  1-cont  2-samecut
   ICHARG =      2    charge: 1-file 2-atom 10-const
   ISPIN  =      2    spin polarized calculation?
   LNONCOLLINEAR =      F non collinear calculations
   LSORBIT =      F    spin-orbit coupling
   INIWAV =      1    electr: 0-lowe 1-rand  2-diag
   LASPH  =      F    aspherical Exc in radial PAW
   METAGGA=      F    non-selfconsistent MetaGGA calc.

 Electronic Relaxation 1
   ENCUT  =  600.0 eV  44.10 Ry    6.64 a.u.  18.06 65.49 13.44*2*pi/ulx,y,z
   ENINI  =  600.0     initial cutoff
   ENAUG  =  644.9 eV  augmentation charge cutoff
   NELM   =     80;   NELMIN=  8; NELMDL= -5     # of ELM steps 
   EDIFF  = 0.1E-05   stopping-criterion for ELM
   LREAL  =      T    real-space projection
   NLSPLINE    = F    spline interpolate recip. space projectors
   LCOMPAT=      F    compatible to vasp.4.4
   GGA_COMPAT  = T    GGA compatible to vasp.4.4-vasp.4.6
   LMAXPAW     = -100 max onsite density
   LMAXMIX     =    2 max onsite mixed and CHGCAR
   VOSKOWN=      0    Vosko Wilk Nusair interpolation
   ROPT   =   -0.00050  -0.00050  -0.00050  -0.00050
   ROPT   =   -0.00050
 Ionic relaxation
   EDIFFG = -.1E-01   stopping-criterion for IOM
   NSW    =    500    number of steps for IOM
   NBLOCK =      1;   KBLOCK =    500    inner block; outer block 
   IBRION =      2    ionic relax: 0-MD 1-quasi-New 2-CG
   NFREE  =      1    steps in history (QN), initial steepest desc. (CG)
   ISIF   =      4    stress and relaxation
   IWAVPR =     11    prediction:  0-non 1-charg 2-wave 3-comb
   ISYM   =      0    0-nonsym 1-usesym 2-fastsym
   LCORR  =      T    Harris-Foulkes like correction to forces

   POTIM  = 0.5000    time-step for ionic-motion
   TEIN   =    0.0    initial temperature
   TEBEG  =    0.0;   TEEND  =   0.0 temperature during run
   SMASS  =  -3.00    Nose mass-parameter (am)
   estimated Nose-frequenzy (Omega)   =  0.10E-29 period in steps =****** mass=  -0.187E-26a.u.
   SCALEE = 1.0000    scale energy and forces
   NPACO  =    256;   APACO  = 16.0  distance and # of slots for P.C.
   PSTRESS=    0.0 pullay stress

  Mass of Ions in am
   POMASS =  12.01 58.93  1.00 14.00 16.00
  Ionic Valenz
   ZVAL   =   4.00  9.00  1.00  5.00  6.00
  Atomic Wigner-Seitz radii
   RWIGS  =  -1.00 -1.00 -1.00 -1.00 -1.00
  virtual crystal weights 
   VCA    =   1.00  1.00  1.00  1.00  1.00
   NELECT =     604.0000    total number of electrons
   NUPDOWN=      -1.0000    fix difference up-down

 DOS related values:
   EMIN   =  10.00;   EMAX   =-10.00  energy-range for DOS
   EFERMI =   0.00
   ISMEAR =     0;   SIGMA  =   0.05  broadening in eV -4-tet -1-fermi 0-gaus

 Electronic relaxation 2 (details)
   IALGO  =     38    algorithm
   LDIAG  =      T    sub-space diagonalisation (order eigenvalues)
   LSUBROT=      F    optimize rotation matrix (better conditioning)
   TURBO    =      0    0=normal 1=particle mesh
   IRESTART =      0    0=no restart 2=restart with 2 vectors
   NREBOOT  =      0    no. of reboots
   NMIN     =      0    reboot dimension
   EREF     =   0.00    reference energy to select bands
   IMIX   =      4    mixing-type and parameters
     AMIX     =   0.40;   BMIX     =  1.00
     AMIX_MAG =   1.60;   BMIX_MAG =  1.00
     AMIN     =   0.10
     WC   =   100.;   INIMIX=   1;  MIXPRE=   1;  MAXMIX= -45

 Intra band minimization:
   WEIMIN = 0.0010     energy-eigenvalue tresh-hold
   EBREAK =  0.65E-09  absolut break condition
   DEPER  =   0.30     relativ break condition  

   TIME   =   0.40     timestep for ELM

  volume/ion in A,a.u.               =      12.62        85.18
  Fermi-wavevector in a.u.,A,eV,Ry     =   1.104061  2.086372 16.584826  1.218950
  Thomas-Fermi vector in A             =   2.240528
 
 Write flags
   LWAVE        =      T    write WAVECAR
   LDOWNSAMPLE  =      F    k-point downsampling of WAVECAR
   LCHARG       =      T    write CHGCAR
   LVTOT        =      F    write LOCPOT, total local potential
   LVHAR        =      F    write LOCPOT, Hartree potential only
   LELF         =      F    write electronic localiz. function (ELF)
   LORBIT       =     11    0 simple, 1 ext, 2 COOP (PROOUT), +10 PAW based schemes


 Dipole corrections
   LMONO  =      F    monopole corrections only (constant potential shift)
   LDIPOL =      F    correct potential (dipole corrections)
   IDIPOL =      0    1-x, 2-y, 3-z, 4-all directions 
   EPSILON=  1.0000000 bulk dielectric constant

 Exchange correlation treatment:
   GGA     =    PE    GGA type
   LEXCH   =     8    internal setting for exchange type
   VOSKOWN=      0    Vosko Wilk Nusair interpolation
   LHFCALC =     F    Hartree Fock is set to
   LHFONE  =     F    Hartree Fock one center treatment
   AEXX    =    0.0000 exact exchange contribution

 Linear response parameters
   LEPSILON=     F    determine dielectric tensor
   LRPA    =     F    only Hartree local field effects (RPA)
   LNABLA  =     F    use nabla operator in PAW spheres
   LVEL    =     F    velocity operator in full k-point grid
   LINTERFAST=   F  fast interpolation
   KINTER  =     0    interpolate to denser k-point grid
   CSHIFT  =0.1000    complex shift for real part using Kramers Kronig
   OMEGAMAX=  -1.0    maximum frequency
   DEG_THRESHOLD= 0.2000000E-02 threshold for treating states as degnerate
   RTIME   =   -0.100 relaxation time in fs
  (WPLASMAI=    0.000 imaginary part of plasma frequency in eV, 0.658/RTIME)
   DFIELD  = 0.0000000 0.0000000 0.0000000 field for delta impulse in time
 
 Orbital magnetization related:
   ORBITALMAG=     F  switch on orbital magnetization
   LCHIMAG   =     F  perturbation theory with respect to B field
   DQ        =  0.001000  dq finite difference perturbation B field
   LLRAUG    =     F  two centre corrections for induced B field



--------------------------------------------------------------------------------------------------------


 conjugate gradient relaxation of ions
 charge density and potential will be updated during run
 spin polarized calculation
 Variant of blocked Davidson
 Davidson routine will perform the subspace rotation
 perform sub-space diagonalisation
    after iterative eigenvector-optimisation
 modified Broyden-mixing scheme, WC =      100.0
 initial mixing is a Kerker type mixing with AMIX =  0.4000 and BMIX =      1.0000
 Hartree-type preconditioning will be used
 using additional bands           82
 real space projection scheme for non local part
 use partial core corrections
 calculate Harris-corrections to forces 
   (improved forces if not selfconsistent)
 use gradient corrections 
 use of overlap-Matrix (Vanderbilt PP)
 Gauss-broadening in eV      SIGMA  =   0.05


--------------------------------------------------------------------------------------------------------


  energy-cutoff  :      600.00
  volume of cell :     1969.17
      direct lattice vectors                 reciprocal lattice vectors
     9.042341217  0.001090371  0.000255154     0.110590829 -0.000008954 -0.000020650
     0.002165715 32.689433563 -2.575380364    -0.000003785  0.030791921  0.002551256
     0.001207145 -0.555591220  6.705610147    -0.000005662  0.011826055  0.150108706

  length of vectors
     9.042341286 32.790725142  6.728587557     0.110590832  0.030897432  0.150573833


 
 k-points in units of 2pi/SCALE and weight: read from INCAR                         
   0.00000000  0.00000000  0.00000000       0.083
   0.03686361 -0.00000298 -0.00000688       0.167
  -0.00000142  0.00295651  0.03752718       0.167
   0.03686219  0.00295353  0.03752029       0.167
  -0.03686503  0.00295950  0.03753406       0.167
  -0.00000283  0.00591303  0.07505435       0.083
   0.03686078  0.00591004  0.07504747       0.167
 
 k-points in reciprocal lattice and weights: read from INCAR                         
   0.00000000  0.00000000  0.00000000       0.083
   0.33333333  0.00000000  0.00000000       0.167
  -0.00000000 -0.00000000  0.25000000       0.167
   0.33333333 -0.00000000  0.25000000       0.167
  -0.33333333 -0.00000000  0.25000000       0.167
  -0.00000000 -0.00000000  0.50000000       0.083
   0.33333333 -0.00000000  0.50000000       0.167
 
 position of ions in fractional coordinates (direct lattice) 
   0.89153748  0.95607003  0.13764332
   0.77745119  0.95025731  0.42546146
   0.89304876  0.79744786  0.88848505
   0.60852919  0.45603875  0.63722796
   0.72175781  0.30327172  0.10068137
   0.21645825  0.80341587  0.10154187
   0.72240144  0.45020739  0.92513128
   0.60707293  0.29745606  0.38808432
   0.28481897  0.45058051  0.42527127
   0.10239995  0.79759119  0.38937664
   0.21518437  0.95055562  0.92533646
   0.28356621  0.30337567  0.60104880
   0.77827464  0.80325945  0.60118270
   0.10102207  0.95620873  0.63743776
   0.39766285  0.29754688  0.88879582
   0.39879711  0.45621848  0.13717041
   0.69286961  0.03139059  0.13063197
   0.82965046  0.04835900  0.45779856
   0.83132858  0.70516021  0.56885223
   0.67038918  0.54830727  0.95758562
   0.66899565  0.20517040  0.06844055
   0.30298295  0.72256525  0.39697581
   0.80705987  0.53134996  0.63023081
   0.80589614  0.22215728  0.39558402
   0.19944116  0.53141311  0.12935895
   0.16678263  0.70524407  0.06950175
   0.16408101  0.04870928  0.95652678
   0.33357050  0.20517578  0.56922333
   0.69442731  0.72214221  0.89610154
   0.30058045  0.03135366  0.62922852
   0.19717361  0.22253870  0.89657832
   0.33594057  0.54871923  0.45660907
   0.68863702  0.07608405  0.11743807
   0.81787514  0.09280954  0.44209079
   0.81939493  0.66070843  0.58432907
   0.68221980  0.59276342  0.94203668
   0.68080099  0.16072325  0.08414851
   0.30938878  0.67785765  0.40963502
   0.81140800  0.57605522  0.61727976
   0.80997604  0.17746588  0.40889754
   0.19310678  0.57612140  0.11671475
   0.18091656  0.66080081  0.08456041
   0.17836575  0.09315284  0.94153009
   0.31927009  0.16073708  0.58422246
   0.69022281  0.67743996  0.90920522
   0.30697469  0.07605848  0.61650633
   0.19075324  0.17783492  0.90932438
   0.32171305  0.59316755  0.44170343
   0.62493681  0.08910971  0.95050341
   0.87769930  0.12227416  0.59232754
   0.87946767  0.63125420  0.43417243
   0.62246094  0.62222170  0.09243928
   0.62071220  0.13126147  0.93410232
   0.37365489  0.66497302  0.57657601
   0.87516179  0.58909382  0.45039162
   0.87340346  0.16443424  0.57600510
   0.12875991  0.58901389  0.94983301
   0.12238357  0.63117386  0.93395153
   0.11997319  0.12281027  0.09219173
   0.37775491  0.13108657  0.43359355
   0.62678832  0.66438866  0.07628313
   0.37132922  0.08893002  0.44955688
   0.12645576  0.16497339  0.07631564
   0.38010976  0.62280580  0.59237773
   0.80312603  0.97759303  0.28956392
   0.80450811  0.77591703  0.73685626
   0.69685628  0.47754517  0.78920638
   0.69565306  0.27593105  0.23640410
   0.19106568  0.77610212  0.23763692
   0.31066627  0.47785096  0.28907345
   0.18927629  0.97782606  0.78915032
   0.30907685  0.27605462  0.73708275
   0.75119875  0.10539893  0.27163312
   0.75259038  0.64812425  0.75473108
   0.74889536  0.60536829  0.77161069
   0.74754893  0.14814756  0.25458283
   0.24836882  0.64836950  0.25489283
   0.25420784  0.60560524  0.27140930
   0.24589497  0.10556634  0.77117615
   0.25177779  0.14832663  0.75459157
   0.04204655  0.87684349  0.01325467
   0.95179516  0.87684931  0.51353410
   0.45797377  0.37684249  0.51282755
   0.54785846  0.37680644  0.01294202
   0.42843323  0.14129940  0.30325930
   0.92040156  0.56579224  0.33236157
   0.91836222  0.18773870  0.69417239
   0.57968125  0.06580177  0.83257782
   0.58189055  0.68768671  0.19458513
   0.57242811  0.61185426  0.22278953
   0.07172043  0.64140968  0.80368697
   0.06923949  0.11259975  0.22248526
   0.92978992  0.64163051  0.30403680
   0.08252189  0.18842807  0.19468450
   0.08474805  0.56558443  0.83146243
   0.41756191  0.68841454  0.69498813
   0.43080530  0.61257809  0.72263866
   0.57044551  0.14163140  0.80391637
   0.92775033  0.11191257  0.72266022
   0.41536061  0.06548567  0.33121350
   0.78225351  0.45479120  0.06682421
   0.22355711  0.29878416  0.45947617
   0.44315888  0.46655722  0.00421553
   0.05821059  0.78714830  0.52216946
   0.27514446  0.95522849  0.06692953
   0.44197551  0.28709188  0.02147824
   0.93586473  0.96653357  0.00498875
   0.71811700  0.79864330  0.45972573
   0.05662196  0.96655682  0.50455393
   0.56431621  0.46651507  0.50455288
   0.78188835  0.29866381  0.95918479
   0.71758405  0.95485022  0.56717525
   0.56247144  0.28700059  0.52062344
   0.22496912  0.45526528  0.56698571
   0.27648594  0.79882427  0.95994402
   0.93769400  0.78698480  0.02094721
   0.91912803  0.91819775  0.18095518
   0.84868021  0.91429140  0.35810196
   0.92012566  0.83534908  0.84527185
   0.58084827  0.41817493  0.68053920
   0.65065773  0.33925890  0.16795679
   0.14486266  0.83933490  0.16859626
   0.65117454  0.41425401  0.85771944
   0.57985982  0.33534852  0.34482348
   0.35562196  0.41454675  0.35808896
   0.07442455  0.83542171  0.34575467
   0.14429003  0.91453856  0.85832612
   0.35505937  0.33930270  0.66808362
   0.84924854  0.83925562  0.66846829
   0.07376132  0.91835572  0.68116554
   0.42550126  0.33538441  0.84518970
   0.42603190  0.41835276  0.18079029
   0.76686637  0.02014173  0.29951041
   0.76837772  0.73337004  0.72710904
   0.73314951  0.52009039  0.79918306
   0.73186563  0.23338330  0.22666571
   0.22848467  0.73362882  0.22803549
   0.27380095  0.52034825  0.29840332
   0.22620464  0.02031403  0.79834292
   0.27171462  0.23358138  0.72759968
   0.63751150  0.00517105  0.00130747
   0.89287063  0.03635918  0.59976629
   0.89479618  0.71719791  0.42714014
   0.60714441  0.53630407  0.09952741
   0.60570564  0.21719064  0.92658997
   0.35698697  0.74893360  0.52681880
   0.86223595  0.50513321  0.50065957
   0.86138404  0.24838881  0.52473264
   0.14545977  0.50505143  0.99947651
   0.10265705  0.71708716  0.92782513
   0.09950406  0.03686540  0.09786928
   0.39795655  0.21700225  0.42768140
   0.63912706  0.74837566  0.02549782
   0.35453475  0.00497446  0.49933899
   0.14313937  0.24891668  0.02638673
   0.40048508  0.53684997  0.59791304
 
 position of ions in cartesian coordinates  (Angst):
   8.06382285 31.17788634 -1.53903407
   7.03255052 30.82783838  0.40590306
   8.07805122 25.57545812  3.90433070
   5.50428548 14.55427380  3.09868428
   6.52715869  9.85863002 -0.10572583
   1.95915193 26.20703004 -1.38814602
   6.53429208 14.20381754  5.04429873
   5.49047327  9.50871588  1.83643454
   2.57691947 14.49325531  1.69135982
   0.92813264 25.85658165  0.55693341
   1.94894618 30.55925059  3.75695816
   2.56548505  9.58355047  3.24916353
   7.03989017 25.92493315  1.96279678
   0.91631640 30.90387713  1.81183371
   3.59752046  9.23326551  5.19372335
   3.60721313 14.83774773 -0.25502308
   6.26538907  0.95431810  0.79530117
   7.50263989  1.32738411  2.94548751
   7.51937057 22.73614484  1.99865766
   6.06423111 17.39255882  5.00926713
   6.04981390  6.66960867 -0.06928548
   2.74171933 23.40002276  0.80116196
   7.29962228 17.02025844  2.85785976
   7.28814658  7.04329134  2.08069837
   1.80472203 17.29994026 -0.50110933
   1.50971673 23.01559632 -1.35017752
   1.48493663  1.06101974  6.28869262
   3.01738980  6.39118825  3.28866918
   6.28189440 23.10931076  4.14929388
   2.71877849  0.67566736  4.13869027
   1.78447533  6.77674792  5.43903320
   3.03942884 17.68399926  1.64876739
   6.22719743  2.42264788  0.59172427
   7.39624077  2.78916126  2.72567730
   7.41138486 21.27442972  2.21691646
   6.17128517 18.85445711  4.79051353
   6.15648449  5.20794229  0.15051733
   2.79956144 21.93153042  1.00119040
   7.33902074 18.48884826  2.65588317
   7.32495768  5.57496224  2.28507205
   1.74752602 18.76844721 -0.70103886
   1.63744247 21.55442059 -1.13473817
   1.61418228  2.52220216  6.07367524
   2.88800242  4.93016333  3.50369040
   6.24379486 21.64073478  4.35228632
   2.77667885  2.14411777  3.93824989
   1.72633873  5.30831814  5.63963090
   2.91085702 19.14525539  1.43434105
   5.65223229  2.38553592  6.14437336
   7.93743638  3.66893810  3.65723902
   7.95433803 20.39507870  1.28589582
   5.62996337 20.28939528 -0.98243693
   5.61410341  3.77256098  5.92583615
   3.38085119 21.41765814  2.15383080
   7.91533098 19.00786384  1.50323330
   7.89866357  5.05619097  3.43920780
   1.16671329 18.72695186  4.85230792
   1.10912839 20.11395415  4.63723333
   1.08521576  3.96350813  0.30194926
   3.41659610  4.04465691  2.57000792
   5.66916482 21.67679025 -1.19936863
   3.35842080  2.65770711  2.78561928
   1.14390553  5.35062411  0.08690595
   3.43914608 20.03046330  2.36838929
   7.26460638 31.79695882 -0.57576622
   7.27720671 24.95577471  2.94299458
   6.30319914 15.17296471  4.06242768
   6.29121529  8.88944424  0.87478382
   1.72964879 25.23851817 -0.40520885
   2.81053430 15.46040943  0.70784513
   1.71457107 31.52634129  2.77350867
   2.79626593  8.61488952  4.23172277
   6.79315158  3.29533328  1.55021513
   6.80749376 20.76831338  3.39195792
   6.77400987 19.36126297  3.61525792
   6.76022063  4.70223106  1.32578764
   2.24754751 21.05348616  0.03947724
   2.30027323 19.64637694  0.26036598
   2.22462575  3.02271333  4.89939588
   2.27789285  4.42974375  4.67806360
   0.38211424 28.65619870 -2.16931410
   8.60897548 28.37942997  1.18558183
   4.14259029 12.03434445  2.46842571
   4.95475479 12.31099595 -0.88349601
   3.87471151  4.45097627  1.66974827
   8.32421154 18.31177410  0.77179177
   8.30538911  5.75239704  4.17158520
   5.24282322  1.68908169  5.41362558
   5.26337715 22.37261357 -0.46609434
   5.17768433 19.87801330 -0.08167166
   0.65087987 20.52087584  3.73735593
   0.62659950  3.55728684  1.20192986
   8.40923434 20.80663169  0.38654684
   0.74683417  6.05153198  0.82022548
   0.76854941 18.02677381  4.11888947
   3.77806710 22.11820733  2.88749673
   3.89768756 19.62380895  3.26822148
   5.15944011  4.18382350  5.02614061
   8.39014975  3.25786639  4.55789699
   3.75637405  1.95712304  2.05244406
   7.07446874 14.83059282 -0.72296366
   2.02268136  9.51204765  2.31164229
   4.00820929 15.24963224 -1.17318150
   0.52869509 25.44138264  1.47427340
   2.49009964 31.18899269 -2.01120316
   3.99714108  9.37341973 -0.59523331
   8.46450744 31.59368357 -2.45550018
   6.49574351 25.85256067  1.02611447
   0.51469745 31.31593111  0.89410496
   5.10435916 14.97040340  2.18202518
   7.07190596  9.23108877  5.66294587
   6.49139240 30.89917760  1.34433668
   5.08730872  9.09324612  2.75210567
   2.03591798 14.56759708  2.62956124
   2.50296907 25.58007780  4.37980460
   8.48067880 25.71547174 -1.88608214
   8.31327622 29.91582949 -1.15105906
   7.67646845 29.68963491  0.04686057
   8.32291967 26.83846602  3.51695662
   5.25395541 13.29243340  3.48661924
   5.88440666 10.99757544  0.25269809
   1.31191887 27.34386987 -1.03102884
   5.89007494 13.06589764  4.68483669
   5.24443284 10.77140444  1.44874977
   3.21698517 13.35273506  1.33368015
   0.67519881 27.11744523  0.16698636
   1.30773648 29.41902630  3.40035252
   3.21210931 10.72081883  3.60616540
   7.68181956 27.06432173  2.32130199
   0.66978615 29.64215917  2.20253409
   3.84927418 10.49441028  4.80387876
   3.85345005 13.57573378  0.13500042
   6.93467256  0.49285263  1.95672307
   6.95039948 23.57031366  2.98719898
   6.63147910 16.55824064  4.01976650
   6.61855785  7.50403246  0.91906784
   2.06790045 23.85546517 -0.36019787
   2.47728878 16.84439782  0.66095155
   2.04642721  0.22074860  5.30111771
   2.45832049  7.23169115  4.27750821
   5.76460930  0.16900732 -0.00438738
   8.07444365  0.85630957  3.92838800
   8.09312122 23.20845367  1.01740618
   5.49128856 17.47684163 -0.71364007
   5.47858599  6.58569416  5.65415717
   3.23025593 24.18990860  1.60394366
   7.79833002 16.23529663  2.05653776
   7.79009976  7.82909184  2.87917666
   1.31759717 15.95470354  5.40143740
   0.93093311 22.92579337  4.37488763
   0.89994766  1.15084237  0.56135616
   3.59944519  6.85649861  2.30910296
   5.78085652 24.45050709 -1.75621046
   3.20643771 -0.11442962  3.33565195
   1.29488599  8.12244114 -0.46407946
   3.62320721 17.21756280  2.62688110
 


--------------------------------------------------------------------------------------------------------


 k-point  1 :   0.0000 0.0000 0.0000  plane waves:   65761
 k-point  2 :   0.3333 0.0000 0.0000  plane waves:   65788
 k-point  3 :  -0.0000-0.0000 0.2500  plane waves:   65691
 k-point  4 :   0.3333-0.0000 0.2500  plane waves:   65746
 k-point  5 :  -0.3333-0.0000 0.2500  plane waves:   65745
 k-point  6 :  -0.0000-0.0000 0.5000  plane waves:   65564
 k-point  7 :   0.3333-0.0000 0.5000  plane waves:   65666

 maximum and minimum number of plane-waves per node :     16498    16379

 maximum number of plane-waves:     65788
 maximum index in each direction: 
   IXMAX=   18   IYMAX=   65   IZMAX=   13
   IXMIN=  -18   IYMIN=  -65   IZMIN=  -13


 real space projection operators:
  total allocation   :      10925.44 KBytes
  max/ min on nodes  :       2791.02       2671.38


 parallel 3D FFT for wavefunctions:
    minimum data exchange during FFTs selected (reduces bandwidth)
 parallel 3D FFT for charge:
    minimum data exchange during FFTs selected (reduces bandwidth)


 total amount of memory used by VASP MPI-rank0   101781. kBytes
=======================================================================

   base      :      30000. kBytes
   nonlr-proj:       8802. kBytes
   fftplans  :       4495. kBytes
   grid      :      12199. kBytes
   one-center:       1213. kBytes
   wavefun   :      45072. kBytes
 
     INWAV:  cpu time    0.0002: real time    0.0002
 Broyden mixing: mesh for mixing (old mesh)
   NGX = 37   NGY =131   NGZ = 27
  (NGX  =108   NGY  =392   NGZ  = 80)
  gives a total of 130869 points

 initial charge density was supplied:
 charge density of overlapping atoms calculated
 number of electron     604.0000000 magnetization      -0.0000000
 keeping initial charge density in first step


--------------------------------------------------------------------------------------------------------


 Maximum index for non-local projection operator          578
 Maximum index for augmentation-charges          428 (set IRDMAX)


--------------------------------------------------------------------------------------------------------


 First call to EWALD:  gamma=   0.141
 Maximum number of real-space cells 4x 1x 5
 Maximum number of reciprocal cells 2x 6x 2

    FEWALD:  cpu time    0.0152: real time    0.0153


--------------------------------------- Iteration      1(   1)  ---------------------------------------


    POTLOK:  cpu time    0.2137: real time    0.2760
    SETDIJ:  cpu time    0.0601: real time    0.0605
     EDDAV:  cpu time   28.3158: real time   28.4304
       DOS:  cpu time    0.0058: real time    0.0063
    --------------------------------------------
      LOOP:  cpu time   28.5956: real time   28.7733

 eigenvalue-minimisations  : 10752
 total energy-change (2. order) : 0.4643330E+04  (-0.3105296E+05)
 number of electron     604.0000000 magnetization      -0.0000000
 augmentation part      604.0000000 magnetization      -0.0000000

 Free energy of the ion-electron system (eV)
  ---------------------------------------------------
  alpha Z        PSCENC =       857.88176700
  Ewald energy   TEWEN  =     -5673.97058690
  -Hartree energ DENC   =    -20549.40230669
  -exchange      EXHF   =         0.00000000
  -V(xc)+E(xc)   XCENC  =      2119.62390860
  PAW double counting   =     22087.95224925   -22402.63741193
  entropy T*S    EENTRO =        -0.03710262
  eigenvalues    EBANDS =      -487.89088570
  atomic energy  EATOM  =     28691.81066055
  Solvation  Ediel_sol  =         0.00000000
  ---------------------------------------------------
  free energy    TOTEN  =      4643.33029154 eV

  energy without entropy =     4643.36739416  energy(sigma->0) =     4643.34884285


--------------------------------------------------------------------------------------------------------




--------------------------------------- Iteration      1(   2)  ---------------------------------------


     EDDAV:  cpu time   33.6029: real time   33.6458
       DOS:  cpu time    0.0048: real time    0.0048
    --------------------------------------------
      LOOP:  cpu time   33.6077: real time   33.6506

 eigenvalue-minimisations  : 13344
 total energy-change (2. order) :-0.5325439E+04  (-0.5127189E+04)
 number of electron     604.0000000 magnetization      -0.0000000
 augmentation part      604.0000000 magnetization      -0.0000000

 Free energy of the ion-electron system (eV)
  ---------------------------------------------------
  alpha Z        PSCENC =       857.88176700
  Ewald energy   TEWEN  =     -5673.97058690
  -Hartree energ DENC   =    -20549.40230669
  -exchange      EXHF   =         0.00000000
  -V(xc)+E(xc)   XCENC  =      2119.62390860
  PAW double counting   =     22087.95224925   -22402.63741193
  entropy T*S    EENTRO =        -0.00375876
  eigenvalues    EBANDS =     -5813.36367694
  atomic energy  EATOM  =     28691.81066055
  Solvation  Ediel_sol  =         0.00000000
  ---------------------------------------------------
  free energy    TOTEN  =      -682.10915583 eV

  energy without entropy =     -682.10539707  energy(sigma->0) =     -682.10727645


--------------------------------------------------------------------------------------------------------




--------------------------------------- Iteration      1(   3)  ---------------------------------------


     EDDAV:  cpu time   33.4752: real time   33.5077
       DOS:  cpu time    0.0060: real time    0.0060
    --------------------------------------------
      LOOP:  cpu time   33.4812: real time   33.5137

 eigenvalue-minimisations  : 12960
 total energy-change (2. order) :-0.5902009E+03  (-0.5817291E+03)
 number of electron     604.0000000 magnetization      -0.0000000
 augmentation part      604.0000000 magnetization      -0.0000000

 Free energy of the ion-electron system (eV)
  ---------------------------------------------------
  alpha Z        PSCENC =       857.88176700
  Ewald energy   TEWEN  =     -5673.97058690
  -Hartree energ DENC   =    -20549.40230669
  -exchange      EXHF   =         0.00000000
  -V(xc)+E(xc)   XCENC  =      2119.62390860
  PAW double counting   =     22087.95224925   -22402.63741193
  entropy T*S    EENTRO =        -0.07820057
  eigenvalues    EBANDS =     -6403.49009386
  atomic energy  EATOM  =     28691.81066055
  Solvation  Ediel_sol  =         0.00000000
  ---------------------------------------------------
  free energy    TOTEN  =     -1272.31001457 eV

  energy without entropy =    -1272.23181400  energy(sigma->0) =    -1272.27091428


--------------------------------------------------------------------------------------------------------




--------------------------------------- Iteration      1(   4)  ---------------------------------------


     EDDAV:  cpu time   34.3626: real time   34.3956
       DOS:  cpu time    0.0051: real time    0.0050
    --------------------------------------------
      LOOP:  cpu time   34.3677: real time   34.4006

 eigenvalue-minimisations  : 13920
 total energy-change (2. order) :-0.2070092E+02  (-0.2050387E+02)
 number of electron     604.0000000 magnetization      -0.0000000
 augmentation part      604.0000000 magnetization      -0.0000000

 Free energy of the ion-electron system (eV)
  ---------------------------------------------------
  alpha Z        PSCENC =       857.88176700
  Ewald energy   TEWEN  =     -5673.97058690
  -Hartree energ DENC   =    -20549.40230669
  -exchange      EXHF   =         0.00000000
  -V(xc)+E(xc)   XCENC  =      2119.62390860
  PAW double counting   =     22087.95224925   -22402.63741193
  entropy T*S    EENTRO =        -0.06560740
  eigenvalues    EBANDS =     -6424.20360218
  atomic energy  EATOM  =     28691.81066055
  Solvation  Ediel_sol  =         0.00000000
  ---------------------------------------------------
  free energy    TOTEN  =     -1293.01092972 eV

  energy without entropy =    -1292.94532232  energy(sigma->0) =    -1292.97812602


--------------------------------------------------------------------------------------------------------




--------------------------------------- Iteration      1(   5)  ---------------------------------------


     EDDAV:  cpu time   36.6961: real time   36.7320
       DOS:  cpu time    0.0051: real time    0.0051
    CHARGE:  cpu time    0.8898: real time    0.8928
    MIXING:  cpu time    0.0095: real time    0.0125
    --------------------------------------------
      LOOP:  cpu time   37.6005: real time   37.6424

 eigenvalue-minimisations  : 15328
 total energy-change (2. order) :-0.7416807E+00  (-0.7403997E+00)
 number of electron     603.9999840 magnetization       0.0000323
 augmentation part       36.3524959 magnetization      -0.0003711

 Broyden mixing:
  rms(total) = 0.88713E+01    rms(broyden)= 0.88708E+01
  rms(prec ) = 0.94388E+01
  weight for this iteration     100.00

 Free energy of the ion-electron system (eV)
  ---------------------------------------------------
  alpha Z        PSCENC =       857.88176700
  Ewald energy   TEWEN  =     -5673.97058690
  -Hartree energ DENC   =    -20549.40230669
  -exchange      EXHF   =         0.00000000
  -V(xc)+E(xc)   XCENC  =      2119.62390860
  PAW double counting   =     22087.95224925   -22402.63741193
  entropy T*S    EENTRO =        -0.06443777
  eigenvalues    EBANDS =     -6424.94645253
  atomic energy  EATOM  =     28691.81066055
  Solvation  Ediel_sol  =         0.00000000
  ---------------------------------------------------
  free energy    TOTEN  =     -1293.75261044 eV

  energy without entropy =    -1293.68817267  energy(sigma->0) =    -1293.72039155


--------------------------------------------------------------------------------------------------------




--------------------------------------- Iteration      1(   6)  ---------------------------------------


    POTLOK:  cpu time    0.1602: real time    0.1602
    SETDIJ:  cpu time    0.0602: real time    0.0610
     EDDAV:  cpu time   40.8291: real time   40.8674
       DOS:  cpu time    0.0051: real time    0.0051
    CHARGE:  cpu time    0.9202: real time    0.9212
    MIXING:  cpu time    0.0082: real time    0.0183
    --------------------------------------------
      LOOP:  cpu time   41.9831: real time   42.0333

 eigenvalue-minimisations  : 17024
 total energy-change (2. order) :-0.2547369E+03  (-0.3045295E+03)
 number of electron     603.9999847 magnetization       0.0002194
 augmentation part       56.8017160 magnetization      -0.0106660

 Broyden mixing:
  rms(total) = 0.23812E+02    rms(broyden)= 0.23812E+02
  rms(prec ) = 0.24099E+02
  weight for this iteration     100.00

 eigenvalues of (default mixing * dielectric matrix)
  average eigenvalue GAMMA=   0.0958
  0.0958

 Free energy of the ion-electron system (eV)
  ---------------------------------------------------
  alpha Z        PSCENC =       857.88176700
  Ewald energy   TEWEN  =     -5673.97058690
  -Hartree energ DENC   =    -21069.90879501
  -exchange      EXHF   =         0.00000000
  -V(xc)+E(xc)   XCENC  =      2154.95150211
  PAW double counting   =     32782.97248930   -33003.44536221
  entropy T*S    EENTRO =        -0.02443881
  eigenvalues    EBANDS =     -6288.75672497
  atomic energy  EATOM  =     28691.81066055
  Solvation  Ediel_sol  =         0.00000000
  ---------------------------------------------------
  free energy    TOTEN  =     -1548.48948895 eV

  energy without entropy =    -1548.46505014  energy(sigma->0) =    -1548.47726955


--------------------------------------------------------------------------------------------------------




--------------------------------------- Iteration      1(   7)  ---------------------------------------


    POTLOK:  cpu time    0.1711: real time    0.1711
    SETDIJ:  cpu time    0.0599: real time    0.0599
     EDDAV:  cpu time   32.4650: real time   32.4963
       DOS:  cpu time    0.0041: real time    0.0042
    CHARGE:  cpu time    0.9200: real time    0.9215
    MIXING:  cpu time    0.0056: real time    0.0098
    --------------------------------------------
      LOOP:  cpu time   33.6258: real time   33.6628

 eigenvalue-minimisations  : 12576
 total energy-change (2. order) : 0.9629288E+02  (-0.2785457E+02)
 number of electron     603.9999848 magnetization       0.0010960
 augmentation part       55.4630670 magnetization      -0.0166217

 Broyden mixing:
  rms(total) = 0.15339E+02    rms(broyden)= 0.15339E+02
  rms(prec ) = 0.15665E+02
  weight for this iteration     100.00

 eigenvalues of (default mixing * dielectric matrix)
  average eigenvalue GAMMA=   0.4367
  0.4367  0.4367

 Free energy of the ion-electron system (eV)
  ---------------------------------------------------
  alpha Z        PSCENC =       857.88176700
  Ewald energy   TEWEN  =     -5673.97058690
  -Hartree energ DENC   =    -21150.80560739
  -exchange      EXHF   =         0.00000000
  -V(xc)+E(xc)   XCENC  =      2157.92163802
  PAW double counting   =     34180.29523070   -34427.85667156
  entropy T*S    EENTRO =        -0.02535733
  eigenvalues    EBANDS =     -6087.44768390
  atomic energy  EATOM  =     28691.81066055
  Solvation  Ediel_sol  =         0.00000000
  ---------------------------------------------------
  free energy    TOTEN  =     -1452.19661081 eV

  energy without entropy =    -1452.17125348  energy(sigma->0) =    -1452.18393215


--------------------------------------------------------------------------------------------------------




--------------------------------------- Iteration      1(   8)  ---------------------------------------


    POTLOK:  cpu time    0.1573: real time    0.1581
    SETDIJ:  cpu time    0.0598: real time    0.0598
     EDDAV:  cpu time   38.0411: real time   38.0770
       DOS:  cpu time    0.0051: real time    0.0051
    CHARGE:  cpu time    0.9292: real time    0.9302
    MIXING:  cpu time    0.0052: real time    0.0068
    --------------------------------------------
      LOOP:  cpu time   39.1976: real time   39.2370

 eigenvalue-minimisations  : 15200
 total energy-change (2. order) : 0.2932264E+03  (-0.2635897E+02)
 number of electron     603.9999850 magnetization      -0.0034707
 augmentation part       51.2627284 magnetization       0.1250560

 Broyden mixing:
  rms(total) = 0.51495E+01    rms(broyden)= 0.51494E+01
  rms(prec ) = 0.55934E+01
  weight for this iteration     100.00

 eigenvalues of (default mixing * dielectric matrix)
  average eigenvalue GAMMA=   0.5041
  0.5698  0.5698  0.3727

 Free energy of the ion-electron system (eV)
  ---------------------------------------------------
  alpha Z        PSCENC =       857.88176700
  Ewald energy   TEWEN  =     -5673.97058690
  -Hartree energ DENC   =    -21392.29472377
  -exchange      EXHF   =         0.00000000
  -V(xc)+E(xc)   XCENC  =      2174.67058522
  PAW double counting   =     39442.83527545   -39773.81429657
  entropy T*S    EENTRO =        -0.04510480
  eigenvalues    EBANDS =     -5486.04374559
  atomic energy  EATOM  =     28691.81066055
  Solvation  Ediel_sol  =         0.00000000
  ---------------------------------------------------
  free energy    TOTEN  =     -1158.97016943 eV

  energy without entropy =    -1158.92506463  energy(sigma->0) =    -1158.94761703


--------------------------------------------------------------------------------------------------------




--------------------------------------- Iteration      1(   9)  ---------------------------------------


    POTLOK:  cpu time    0.1581: real time    0.1581
    SETDIJ:  cpu time    0.0598: real time    0.0597
     EDDAV:  cpu time   40.2341: real time   40.2742
       DOS:  cpu time    0.0054: real time    0.0054
    CHARGE:  cpu time    0.9228: real time    0.9236
    MIXING:  cpu time    0.0048: real time    0.0048
    --------------------------------------------
      LOOP:  cpu time   41.3850: real time   41.4259

 eigenvalue-minimisations  : 16064
 total energy-change (2. order) :-0.3546165E+02  (-0.6399533E+02)
 number of electron     603.9999851 magnetization       0.0336545
 augmentation part       33.5841461 magnetization      -0.5678712

 Broyden mixing:
  rms(total) = 0.70049E+01    rms(broyden)= 0.70047E+01
  rms(prec ) = 0.79572E+01
  weight for this iteration     100.00

 eigenvalues of (default mixing * dielectric matrix)
  average eigenvalue GAMMA=   0.5810
  1.1781  0.4230  0.4230  0.2998

 Free energy of the ion-electron system (eV)
  ---------------------------------------------------
  alpha Z        PSCENC =       857.88176700
  Ewald energy   TEWEN  =     -5673.97058690
  -Hartree energ DENC   =    -21538.98564528
  -exchange      EXHF   =         0.00000000
  -V(xc)+E(xc)   XCENC  =      2180.06461284
  PAW double counting   =     42299.96441194   -42654.43938034
  entropy T*S    EENTRO =        -0.03825789
  eigenvalues    EBANDS =     -5356.71939792
  atomic energy  EATOM  =     28691.81066055
  Solvation  Ediel_sol  =         0.00000000
  ---------------------------------------------------
  free energy    TOTEN  =     -1194.43181600 eV

  energy without entropy =    -1194.39355811  energy(sigma->0) =    -1194.41268706


--------------------------------------------------------------------------------------------------------




--------------------------------------- Iteration      1(  10)  ---------------------------------------


    POTLOK:  cpu time    0.1572: real time    0.1572
    SETDIJ:  cpu time    0.1310: real time    0.1318
     EDDAV:  cpu time   37.3574: real time   37.3929
       DOS:  cpu time    0.0052: real time    0.0052
    CHARGE:  cpu time    0.9331: real time    0.9340
    MIXING:  cpu time    0.0052: real time    0.0052
    --------------------------------------------
      LOOP:  cpu time   38.5892: real time   38.6265

 eigenvalue-minimisations  : 15072
 total energy-change (2. order) : 0.1422501E+02  (-0.7221601E+02)
 number of electron     603.9999844 magnetization       0.0718956
 augmentation part       42.5314676 magnetization      -1.2521481

 Broyden mixing:
  rms(total) = 0.56899E+01    rms(broyden)= 0.56898E+01
  rms(prec ) = 0.65179E+01
  weight for this iteration     100.00

 eigenvalues of (default mixing * dielectric matrix)
  average eigenvalue GAMMA=   0.5138
  1.2644  0.4305  0.4305  0.3115  0.1320

 Free energy of the ion-electron system (eV)
  ---------------------------------------------------
  alpha Z        PSCENC =       857.88176700
  Ewald energy   TEWEN  =     -5673.97058690
  -Hartree energ DENC   =    -21698.52031655
  -exchange      EXHF   =         0.00000000
  -V(xc)+E(xc)   XCENC  =      2189.71298567
  PAW double counting   =     49003.34150547   -49352.64600770
  entropy T*S    EENTRO =        -0.00141116
  eigenvalues    EBANDS =     -5197.81540400
  atomic energy  EATOM  =     28691.81066055
  Solvation  Ediel_sol  =         0.00000000
  ---------------------------------------------------
  free energy    TOTEN  =     -1180.20680764 eV

  energy without entropy =    -1180.20539648  energy(sigma->0) =    -1180.20610206


--------------------------------------------------------------------------------------------------------




--------------------------------------- Iteration      1(  11)  ---------------------------------------


    POTLOK:  cpu time    0.1607: real time    0.1607
    SETDIJ:  cpu time    0.0596: real time    0.0596
     EDDAV:  cpu time   38.4719: real time   38.5108
       DOS:  cpu time    0.0042: real time    0.0042
    CHARGE:  cpu time    0.9363: real time    0.9371
    MIXING:  cpu time    0.0050: real time    0.0050
    --------------------------------------------
      LOOP:  cpu time   39.6377: real time   39.6774

 eigenvalue-minimisations  : 15424
 total energy-change (2. order) : 0.1289917E+02  (-0.2925622E+02)
 number of electron     603.9999840 magnetization       0.0783560
 augmentation part       43.3038117 magnetization       1.1798249

 Broyden mixing:
  rms(total) = 0.51536E+01    rms(broyden)= 0.51535E+01
  rms(prec ) = 0.58803E+01
  weight for this iteration     100.00

 eigenvalues of (default mixing * dielectric matrix)
  average eigenvalue GAMMA=   0.6201
  1.9282  0.4459  0.4459  0.5494  0.2770  0.0740

 Free energy of the ion-electron system (eV)
  ---------------------------------------------------
  alpha Z        PSCENC =       857.88176700
  Ewald energy   TEWEN  =     -5673.97058690
  -Hartree energ DENC   =    -21737.88575761
  -exchange      EXHF   =         0.00000000
  -V(xc)+E(xc)   XCENC  =      2192.59464486
  PAW double counting   =     50437.97008233   -50786.34838987
  entropy T*S    EENTRO =        -0.03411966
  eigenvalues    EBANDS =     -5149.32594018
  atomic energy  EATOM  =     28691.81066055
  Solvation  Ediel_sol  =         0.00000000
  ---------------------------------------------------
  free energy    TOTEN  =     -1167.30763949 eV

  energy without entropy =    -1167.27351983  energy(sigma->0) =    -1167.29057966


--------------------------------------------------------------------------------------------------------




--------------------------------------- Iteration      1(  12)  ---------------------------------------


    POTLOK:  cpu time    0.1588: real time    0.1589
    SETDIJ:  cpu time    0.0589: real time    0.0597
     EDDAV:  cpu time   36.6057: real time   36.6394
       DOS:  cpu time    0.0050: real time    0.0050
    CHARGE:  cpu time    0.9151: real time    0.9162
    MIXING:  cpu time    0.0052: real time    0.0052
    --------------------------------------------
      LOOP:  cpu time   37.7488: real time   37.7844

 eigenvalue-minimisations  : 14560
 total energy-change (2. order) : 0.1367034E+02  (-0.1614699E+02)
 number of electron     603.9999842 magnetization       0.1051343
 augmentation part       47.3910571 magnetization      -0.9300588

 Broyden mixing:
  rms(total) = 0.24268E+01    rms(broyden)= 0.24267E+01
  rms(prec ) = 0.27062E+01
  weight for this iteration     100.00

 eigenvalues of (default mixing * dielectric matrix)
  average eigenvalue GAMMA=   0.5771
  1.9341  0.6355  0.4384  0.4384  0.2741  0.2450  0.0740

 Free energy of the ion-electron system (eV)
  ---------------------------------------------------
  alpha Z        PSCENC =       857.88176700
  Ewald energy   TEWEN  =     -5673.97058690
  -Hartree energ DENC   =    -21874.79701181
  -exchange      EXHF   =         0.00000000
  -V(xc)+E(xc)   XCENC  =      2201.40626895
  PAW double counting   =     55225.28854789   -55572.02574177
  entropy T*S    EENTRO =        -0.05223235
  eigenvalues    EBANDS =     -5009.17896792
  atomic energy  EATOM  =     28691.81066055
  Solvation  Ediel_sol  =         0.00000000
  ---------------------------------------------------
  free energy    TOTEN  =     -1153.63729637 eV

  energy without entropy =    -1153.58506403  energy(sigma->0) =    -1153.61118020


--------------------------------------------------------------------------------------------------------




--------------------------------------- Iteration      1(  13)  ---------------------------------------


    POTLOK:  cpu time    0.1586: real time    0.1594
    SETDIJ:  cpu time    0.0597: real time    0.0597
     EDDAV:  cpu time   38.4158: real time   38.4517
       DOS:  cpu time    0.0050: real time    0.0050
    CHARGE:  cpu time    0.9413: real time    0.9422
    MIXING:  cpu time    0.0054: real time    0.0054
    --------------------------------------------
      LOOP:  cpu time   39.5858: real time   39.6234

 eigenvalue-minimisations  : 15328
 total energy-change (2. order) :-0.8663556E+00  (-0.3061293E+01)
 number of electron     603.9999844 magnetization       0.1326427
 augmentation part       45.4305335 magnetization      -0.8245119

 Broyden mixing:
  rms(total) = 0.29787E+01    rms(broyden)= 0.29786E+01
  rms(prec ) = 0.31560E+01
  weight for this iteration     100.00

 eigenvalues of (default mixing * dielectric matrix)
  average eigenvalue GAMMA=   0.5297
  1.9339  0.7099  0.4343  0.4343  0.2949  0.2648  0.0715  0.0939

 Free energy of the ion-electron system (eV)
  ---------------------------------------------------
  alpha Z        PSCENC =       857.88176700
  Ewald energy   TEWEN  =     -5673.97058690
  -Hartree energ DENC   =    -21891.96661109
  -exchange      EXHF   =         0.00000000
  -V(xc)+E(xc)   XCENC  =      2201.17537821
  PAW double counting   =     55607.30206672   -55954.50088705
  entropy T*S    EENTRO =        -0.02259578
  eigenvalues    EBANDS =     -4992.21284362
  atomic energy  EATOM  =     28691.81066055
  Solvation  Ediel_sol  =         0.00000000
  ---------------------------------------------------
  free energy    TOTEN  =     -1154.50365197 eV

  energy without entropy =    -1154.48105619  energy(sigma->0) =    -1154.49235408


--------------------------------------------------------------------------------------------------------




[...]
   80            fft3d_mpi                            41.939704                     8820   5
   81              fftbas_plan_mpi                      41.908595                   8820   6
   82                dfftw_execute                        19.424810                26460   7
   83                map_forward                          17.695284                17640   7
   84                  map_gather                            4.499028               8820   8
   85                  m_alltoallv_z                         4.203304               8820   8
   86                  map_scatter                           5.660472               8820   8
   87          pw_charge                             4.619021                       8820   4
   88          fft3d_mpi                             0.446467                        126   4
   89            fftbas_plan_mpi                       0.401190                      126   5
   90              dfftw_execute                         0.137710                    378   6
   91              map_backward                          0.193751                    252   6
   92                map_gather                            0.066454                  252   7
   93                m_alltoallv_z                         0.120021                  252   7
   94                map_scatter                           0.004253                  252   7
   95        depsum                                0.227356                           63   3
   96        fft3d_mpi                             0.593090                          126   3
   97          fftbas_plan_mpi                       0.580848                        126   4
   98            dfftw_execute                         0.072594                      378   5
   99            map_backward                          0.416314                      252   5
  100              map_gather                            0.016410                    126   6
  101              m_alltoallv_z                         0.382804                    126   6
  102              map_scatter                           0.015119                    126   6
  103      brmix                                 0.792096                             63   2
  104        brpre                                 0.006673                          126   3
  105        setg0                                 0.071789                           65   3
  106        broyd                                 0.573414                           63   3
  107          brsav                                 0.023664                       2538   4
  108          brget                                 0.069943                      11162   4
  109      force_and_stress                     25.123012                              1   2
  110        set_charge                            0.909374                            1   3
  111          soft_charge                           0.864085                          1   4
  112            fftwav_mpi                            0.734829                      140   5
  113              fft3d_mpi                             0.662064                    140   6
  114                fftbas_plan_mpi                       0.661541                  140   7
  115                  dfftw_execute                         0.310647                420   8
  116                  map_forward                           0.274378                280   8
  117                    map_gather                            0.071165              140   9
  118                    m_alltoallv_z                         0.061280              140   9
  119                    map_scatter                           0.089270              140   9
  120            pw_charge                             0.072162                      140   5
  121            fft3d_mpi                             0.007148                        2   5
  122              fftbas_plan_mpi                       0.006462                      2   6
  123                dfftw_execute                         0.002167                    6   7
  124                map_backward                          0.003005                    4   7
  125                  map_gather                            0.001011                  4   8
  126                  m_alltoallv_z                         0.001879                  4   8
  127                  map_scatter                           0.000066                  4   8
  128          depsum                                0.003487                          1   4
  129          fft3d_mpi                             0.007022                          2   4
  130            fftbas_plan_mpi                       0.006845                        2   5
  131              dfftw_execute                         0.001157                      6   6
  132              map_backward                          0.004181                      4   6
  133                map_gather                            0.000210                    2   7
  134                m_alltoallv_z                         0.003718                    2   7
  135                map_scatter                           0.000225                    2   7
  136        forloc                                0.084949                            1   3
  137        fornlr                                3.828995                            1   3
  138          rspher_all                            0.085239                          3   4
  139          phaser                                0.275822                         21   4
  140          rpro_isp                              3.424089                         21   4
  141            fftwav_mpi                            2.608538                      504   5
  142              fft3d_mpi                             2.347447                    504   6
  143                fftbas_plan_mpi                       2.345651                  504   7
  144                  dfftw_execute                         1.107063               1512   8
  145                  map_forward                           0.969427               1008   8
  146                    map_gather                            0.248711              504   9
  147                    m_alltoallv_z                         0.216488              504   9
  148                    map_scatter                           0.316383              504   9
  149            rpromu                                0.809960                      126   5
  150              crrexp_mul_wave                       0.397491                  78624   6
  151              rpromu_gemm                           0.266254                  19656   6
  152        fordep                                0.177429                            1   3
  153          setdij_                               0.176875                          6   4
  154        setdij_                               0.590580                           20   3
  155        set_dd_paw                            0.030339                            1   3
  156        strkin                                0.019795                            1   3
  157        strelo                                0.004173                            1   3
  158        strnlr                               11.422433                            1   3
  159          rspher_all                            0.251779                          9   4
  160          phaser                                0.829241                         63   4
  161          rpro_isp                             10.237745                         63   4
  162            fftwav_mpi                            7.752986                     1512   5
  163              fft3d_mpi                             6.982257                   1512   6
  164                fftbas_plan_mpi                       6.976996                 1512   7
  165                  dfftw_execute                         3.312335               4536   8
  166                  map_forward                           2.866014               3024   8
  167                    map_gather                            0.728228             1512   9
  168                    m_alltoallv_z                         0.639165             1512   9
  169                    map_scatter                           0.942450             1512   9
  170            rpromu                                2.471420                      378   5
  171              crrexp_mul_wave                       1.224555                 235872   6
  172              rpromu_gemm                           0.812904                  58968   6
  173        fft3d_mpi                             0.067430                           22   3
  174          fftbas_plan_mpi                       0.065387                         22   4
  175            dfftw_execute                         0.013430                       66   5
  176            map_forward                           0.017167                       20   5
  177              map_gather                            0.000785                     10   6
  178              m_alltoallv_z                         0.014596                     10   6
  179              map_scatter                           0.001622                     10   6
  180            map_backward                          0.018884                       24   5
  181              map_gather                            0.001547                     12   6
  182              m_alltoallv_z                         0.015725                     12   6
  183              map_scatter                           0.001422                     12   6
  184        forhar                                0.153135                            2   3
  185        strehar                               0.004328                            1   3
  186        chggra                                0.013503                            1   3
  187          fft3d_mpi                             0.010302                          3   4
  188            fftbas_plan_mpi                       0.009971                        3   5
  189              dfftw_execute                         0.001771                      9   6
  190              map_forward                           0.004486                      4   6
  191                map_gather                            0.000146                    2   7
  192                m_alltoallv_z                         0.004014                    2   7
  193                map_scatter                           0.000293                    2   7
  194              map_backward                          0.001463                      2   6
  195                map_gather                            0.000124                    1   7
  196                m_alltoallv_z                         0.001209                    1   7
  197                map_scatter                           0.000111                    1   7
  198        brmix                                 0.016878                            1   3
  199          brpre                                 0.000089                          2   4
  200          setg0                                 0.001127                          1   4
  201          broyd                                 0.013503                          1   4
  202            brget                                 0.001774                      267   5
  203            brsav                                 0.000268                       48   5
 
 Flat profile
 ============
 
             routine name                   CPU           calls
 ---------------------------------------------------------------
 eddav                                1068.543376          68
 total_time                            332.492453           1
 dfftw_execute                         285.714901      390135
 redis_pw                              229.548829      118857
 orth1                                 162.708139      128517
 redis_proj                             90.081833      150230
 m_alltoallv_z                          89.731784      130303
 map_scatter                            85.271865      130303
 fftbas_plan_mpi                        74.163659      130047
 map_gather                             71.534365      130303
 crrexp_mul_work_add                    56.972646     6674148
 fftwav_mpi                             56.906450       85286
 racc0                                  55.567027       42783
 map_forward                            38.531288      172426
 rpro1                                  37.166857       31359
 vhamil                                 33.388299       42783
 crrexp_mul_wave                        26.531117     5232708
 lincom                                 25.175999         966
 phaser                                 13.747120        1043
 w1_copy                                10.449643      128349
 fftext_mpi                              7.972719       42783
 force_and_stress                        7.799670           1
 eccp                                    6.779143       11424
 pw_charge                               4.691183        8960
 kinhamil                                4.625891       42783
 soft_charge                             4.035050          64
 setdij_                                 2.796323          92
 apply_precond                           2.779350       31359
 overl                                   2.456927       74156
 set_charge                              2.229801          64
 set_dd_paw                              1.999119          66
 overl1                                  1.742057       42783
 setup_precond                           1.642623       11424
 rpromu_gemm                             1.196695       85176
 map_backward                            0.857107       87664
 fft3d_mpi                               0.747611      130045
 rpromu                                  0.631220         546
 hamiltmu                                0.594891       42783
 broyd                                   0.491268          64
 rspher_all                              0.390483          14
 choleski                                0.293864          14
 raccmu_                                 0.273058       42783
 orthch                                  0.237756           1
 depsum                                  0.230843          64
 w1_projall                              0.195074       31359
 forhar                                  0.153135           2
 brmix                                   0.142380          64
 strnlr                                  0.103668           1
 forloc                                  0.084949           1
 setg0                                   0.072916          66
 brget                                   0.071717       11429
 truncate_high_frequency_w1              0.044689       54207
 fornlr                                  0.043845           1
 brsav                                   0.023932        2586
 rpro_isp                                0.020700          91
 strkin                                  0.019795           1
 brpre                                   0.006762         128
 strehar                                 0.004328           1
 strelo                                  0.004173           1
 chggra                                  0.003201           1
 fordep                                  0.000554           1
 brgrid                                  0.000361           1
 redis_pw_over_bands                     0.000000           1
 ---------------------------------------------------------------
  summed up times    2902.71847701073     
 
 Accumulative profile
 ====================
 
             routine name                   CPU           calls
 ---------------------------------------------------------------
 total_time                           2902.718477           1
 eddav                                2473.183053          68
 fft3d_mpi                             646.490376      130045
 fftbas_plan_mpi                       645.804969      130047
 fftwav_mpi                            505.111054       85286
 hamiltmu                              352.841148       42783
 dfftw_execute                         285.714901      390135
 redis_pw                              229.548829      118857
 map_forward                           210.909532      172426
 kinhamil                              204.303172       42783
 fftext_mpi                            199.677281       42783
 orth1                                 162.708139      128517
 raccmu_                               114.554787       42783
 racc0                                 112.539672       42783
 redis_proj                             90.081833      150230
 m_alltoallv_z                          89.731784      130303
 map_scatter                            85.271865      130303
 map_backward                           75.016877       87664
 map_gather                             71.534365      130303
 w1_projall                             62.136965       31359
 rpro1                                  61.941891       31359
 set_charge                             59.505339          64
 crrexp_mul_work_add                    56.972646     6674148
 soft_charge                            56.444583          64
 vhamil                                 33.388299       42783
 crrexp_mul_wave                        26.531117     5232708
 lincom                                 25.175999         966
 force_and_stress                       25.123012           1
 rpro_isp                               14.881298          91
 phaser                                 13.747120        1043
 strnlr                                 11.422433           1
 w1_copy                                10.449643      128349
 eccp                                    6.779143       11424
 pw_charge                               4.691183        8960
 fornlr                                  3.828995           1
 rpromu                                  3.583998         546
 setdij_                                 2.796323          92
 apply_precond                           2.779350       31359
 overl                                   2.456927       74156
 set_dd_paw                              1.999119          66
 overl1                                  1.742057       42783
 orthch                                  1.653193           1
 setup_precond                           1.642623       11424
 rpromu_gemm                             1.196695       85176
 brmix                                   0.808974          64
 broyd                                   0.586917          64
 rspher_all                              0.390483          14
 choleski                                0.293864          14
 depsum                                  0.230843          64
 fordep                                  0.177429           1
 forhar                                  0.153135           2
 forloc                                  0.084949           1
 setg0                                   0.072916          66
 brget                                   0.071717       11429
 truncate_high_frequency_w1              0.044689       54207
 brsav                                   0.023932        2586
 strkin                                  0.019795           1
 chggra                                  0.013503           1
 brpre                                   0.006762         128
 strehar                                 0.004328           1
 strelo                                  0.004173           1
 brgrid                                  0.000361           1
 redis_pw_over_bands                     0.000000           1
 ---------------------------------------------------------------
 
Profiling took   8.023529  4.671295  0.012233  0.011863 seconds
Profiling took   9.419021 seconds
