       N       E                     dE             d eps       ncg     rms          rms(c)
DAV:   1     0.495276743209E+04    0.49528E+04   -0.28242E+05  9984   0.137E+03
DAV:   2    -0.534273156299E+03   -0.54870E+04   -0.52054E+04 13312   0.309E+02
DAV:   3    -0.126916736010E+04   -0.73489E+03   -0.72569E+03 12256   0.121E+02
DAV:   4    -0.129644200149E+04   -0.27275E+02   -0.27098E+02 14144   0.323E+01
DAV:   5    -0.129707048988E+04   -0.62849E+00   -0.62727E+00 13504   0.404E+00
DAV:   6    -0.129710757124E+04   -0.37081E-01   -0.37070E-01 15296   0.111E+00
DAV:   7    -0.129710830201E+04   -0.73077E-03   -0.73047E-03 13728   0.121E-01
DAV:   8    -0.129710833263E+04   -0.30623E-04   -0.30611E-04 15232   0.238E-02    0.867E+01
DAV:   9    -0.156766506288E+04   -0.27056E+03   -0.20506E+03 15648   0.745E+01    0.307E+02
DAV:  10    -0.148011423615E+04    0.87551E+02   -0.19521E+02 13056   0.271E+01    0.204E+02
DAV:  11    -0.116563122100E+04    0.31448E+03   -0.46448E+02 14784   0.114E+02    0.421E+01
DAV:  12    -0.117523593138E+04   -0.96047E+01   -0.82507E+01 12192   0.118E+01    0.250E+01
DAV:  13    -0.120252429369E+04   -0.27288E+02   -0.25759E+02 14816   0.286E+01    0.644E+01
DAV:  14    -0.117424917090E+04    0.28275E+02   -0.14432E+01 14112   0.274E+01    0.259E+01
DAV:  15    -0.117431647018E+04   -0.67299E-01   -0.32814E+01 14368   0.141E+01    0.158E+01
DAV:  16    -0.117363376824E+04    0.68270E+00   -0.73056E+00 14368   0.687E+00    0.975E+00
DAV:  17    -0.117392295771E+04   -0.28919E+00   -0.14913E+00 13952   0.421E+00    0.831E+00
DAV:  18    -0.117385201719E+04    0.70941E-01   -0.16631E+00 14432   0.382E+00    0.714E+00
DAV:  19    -0.117380111035E+04    0.50907E-01   -0.15880E+00 14112   0.380E+00    0.527E+00
DAV:  20    -0.117378735182E+04    0.13759E-01   -0.38633E-01 13728   0.155E+00    0.390E+00
DAV:  21    -0.117387257237E+04   -0.85221E-01   -0.92207E-01 12192   0.112E+00    0.339E+00
DAV:  22    -0.117389337520E+04   -0.20803E-01   -0.29106E-01 12640   0.887E-01    0.260E+00
DAV:  23    -0.117398096033E+04   -0.87585E-01   -0.99293E-02 11744   0.436E-01    0.225E+00
DAV:  24    -0.117402721136E+04   -0.46251E-01   -0.78478E-02 12928   0.495E-01    0.209E+00
DAV:  25    -0.117405119430E+04   -0.23983E-01   -0.85912E-02 12992   0.484E-01    0.161E+00
DAV:  26    -0.117409117954E+04   -0.39985E-01   -0.18619E-02 11968   0.247E-01    0.121E+00
DAV:  27    -0.117411501235E+04   -0.23833E-01   -0.88704E-03 11744   0.139E-01    0.931E-01
DAV:  28    -0.117412741470E+04   -0.12402E-01   -0.63060E-03 12288   0.138E-01    0.698E-01
DAV:  29    -0.117413539759E+04   -0.79829E-02   -0.42503E-03 11744   0.102E-01    0.498E-01
DAV:  30    -0.117414020899E+04   -0.48114E-02   -0.19620E-03 12256   0.859E-02    0.322E-01
DAV:  31    -0.117414247089E+04   -0.22619E-02   -0.94926E-04 11744   0.534E-02    0.209E-01
DAV:  32    -0.117414267315E+04   -0.20226E-03   -0.76423E-04 11616   0.427E-02    0.132E-01
DAV:  33    -0.117414283929E+04   -0.16614E-03   -0.27777E-04 11744   0.328E-02    0.696E-02
DAV:  34    -0.117414368973E+04   -0.85044E-03   -0.15709E-04 12352   0.303E-02    0.283E-02
DAV:  35    -0.117414493746E+04   -0.12477E-02   -0.96697E-05 13184   0.285E-02    0.317E-02
DAV:  36    -0.117414569545E+04   -0.75799E-03   -0.48592E-05 12512   0.154E-02    0.401E-02
DAV:  37    -0.117414629634E+04   -0.60088E-03   -0.19181E-05 12032   0.843E-03    0.393E-02
DAV:  38    -0.117414678779E+04   -0.49145E-03   -0.10140E-05 10592   0.561E-03    0.341E-02
DAV:  39    -0.117414722051E+04   -0.43272E-03   -0.98394E-06 10976   0.669E-03    0.232E-02
DAV:  40    -0.117414753403E+04   -0.31352E-03   -0.71815E-06 11296   0.632E-03    0.149E-02
DAV:  41    -0.117414784183E+04   -0.30780E-03   -0.70803E-06 10528   0.589E-03    0.776E-03
DAV:  42    -0.117414812371E+04   -0.28188E-03   -0.11154E-05 10656   0.581E-03    0.461E-03
DAV:  43    -0.117414820291E+04   -0.79197E-04   -0.31017E-06  9728   0.282E-03    0.680E-03
DAV:  44    -0.117414823281E+04   -0.29898E-04   -0.42853E-07  8480   0.161E-03    0.652E-03
DAV:  45    -0.117414826242E+04   -0.29612E-04   -0.55909E-07  8224   0.163E-03    0.494E-03
DAV:  46    -0.117414828277E+04   -0.20351E-04   -0.36797E-07  8160   0.105E-03    0.403E-03
DAV:  47    -0.117414829392E+04   -0.11148E-04   -0.19682E-07  7872   0.900E-04    0.319E-03
DAV:  48    -0.117414830424E+04   -0.10328E-04   -0.22664E-07  8064   0.807E-04    0.254E-03
DAV:  49    -0.117414831337E+04   -0.91268E-05   -0.30631E-07  8160   0.939E-04    0.103E-03
DAV:  50    -0.117414831578E+04   -0.24087E-05   -0.12392E-07  8064   0.626E-04    0.652E-04
DAV:  51    -0.117414831675E+04   -0.96697E-06   -0.47436E-08  7488   0.396E-04
   1 F= -.11861630E+04 E0= -.11861515E+04  d E =-.118616E+04  mag=    16.6499
