 vasp.6.0.8 29Jun18 (build Mar 14 2019 11:44:20) complex                        
  
 executed on             LinuxIFC date 2020.12.26  02:14:55
 running  128 mpi-ranks, with    1 threads/rank
 distrk:  each k-point on  128 cores,    1 groups
 distr:  one band on NCORES_PER_BAND=   4 cores,   32 groups


--------------------------------------------------------------------------------------------------------


 INCAR:
 POTCAR:    PAW_PBE C 08Apr2002                   
 POTCAR:    PAW_PBE Fe 06Sep2000                  
 POTCAR:    PAW_PBE H 15Jun2001                   
 POTCAR:    PAW_PBE N 08Apr2002                   
 POTCAR:    PAW_PBE O 08Apr2002                   
 POTCAR:    PAW_PBE C 08Apr2002                   
   VRHFIN =C: s2p2                                                              
   LEXCH  = PE                                                                  
   EATOM  =   147.1560 eV,   10.8157 Ry                                         
                                                                                
   TITEL  = PAW_PBE C 08Apr2002                                                 
   LULTRA =        F    use ultrasoft PP ?                                      
   IUNSCR =        1    unscreen: 0-lin 1-nonlin 2-no                           
   RPACOR =    1.200    partial core radius                                     
   POMASS =   12.011; ZVAL   =    4.000    mass and valenz                      
   RCORE  =    1.500    outmost cutoff radius                                   
   RWIGS  =    1.630; RWIGS  =    0.863    wigner-seitz radius (au A)           
   ENMAX  =  400.000; ENMIN  =  300.000 eV                                      
   ICORE  =        2    local potential                                         
   LCOR   =        T    correct aug charges                                     
   LPAW   =        T    paw PP                                                  
   EAUG   =  644.873                                                            
   DEXC   =    0.000                                                            
   RMAX   =    1.529    core radius for proj-oper                               
   RAUG   =    1.300    factor for augmentation sphere                          
   RDEP   =    1.501    radius for radial grids                                 
   RDEPT  =    1.300    core radius for aug-charge                              
                                                                                
   Atomic configuration                                                         
    4 entries                                                                   
     n  l   j            E        occ.                                          
     1  0  0.50      -273.3789   2.0000                                         
     2  0  0.50       -13.7508   2.0000                                         
     2  1  0.50        -5.2854   2.0000                                         
     3  2  1.50        -5.4423   0.0000                                         
   Description                                                                  
     l       E           TYP  RCUT    TYP  RCUT                                 
     0    -13.7508458     23  1.200                                             
     0     -8.2022199     23  1.200                                             
     1     -5.2854383     23  1.500                                             
     1     34.0145650     23  1.500                                             
     2     -5.4423304      7  1.500                                             
  local pseudopotential read in
  partial core-charges read in
  partial kinetic energy density read in
  atomic valenz-charges read in
  non local Contribution for L=           0  read in
    real space projection operators read in
  non local Contribution for L=           0  read in
    real space projection operators read in
  non local Contribution for L=           1  read in
    real space projection operators read in
  non local Contribution for L=           1  read in
    real space projection operators read in
    PAW grid and wavefunctions read in
 
   number of l-projection  operators is LMAX  =           4
   number of lm-projection operators is LMMAX =           8
 
 POTCAR:    PAW_PBE Fe 06Sep2000                  
   VRHFIN =Fe:  d7 s1                                                           
   LEXCH  = PE                                                                  
   EATOM  =   594.3153 eV,   43.6809 Ry                                         
                                                                                
   TITEL  = PAW_PBE Fe 06Sep2000                                                
   LULTRA =        F    use ultrasoft PP ?                                      
   IUNSCR =        1    unscreen: 0-lin 1-nonlin 2-no                           
   RPACOR =    2.000    partial core radius                                     
   POMASS =   55.847; ZVAL   =    8.000    mass and valenz                      
   RCORE  =    2.300    outmost cutoff radius                                   
   RWIGS  =    2.460; RWIGS  =    1.302    wigner-seitz radius (au A)           
   ENMAX  =  267.882; ENMIN  =  200.911 eV                                      
   RCLOC  =    1.701    cutoff for local pot                                    
   LCOR   =        T    correct aug charges                                     
   LPAW   =        T    paw PP                                                  
   EAUG   =  511.368                                                            
   DEXC   =    0.000                                                            
   RMAX   =    2.356    core radius for proj-oper                               
   RAUG   =    1.300    factor for augmentation sphere                          
   RDEP   =    2.442    radius for radial grids                                 
   RDEPT  =    1.890    core radius for aug-charge                              
                                                                                
   Atomic configuration                                                         
    9 entries                                                                   
     n  l   j            E        occ.                                          
     1  0  0.50     -6993.8440   2.0000                                         
     2  0  0.50      -814.6047   2.0000                                         
     2  1  1.50      -693.3689   6.0000                                         
     3  0  0.50       -89.4732   2.0000                                         
     3  1  1.50       -55.6373   6.0000                                         
     3  2  2.50        -3.8151   7.0000                                         
     4  0  0.50        -4.2551   1.0000                                         
     4  1  1.50        -3.4015   0.0000                                         
     4  3  2.50        -1.3606   0.0000                                         
   Description                                                                  
     l       E           TYP  RCUT    TYP  RCUT                                 
     2     -3.8151135     23  2.300                                             
     2     -5.1756961     23  2.300                                             
     0     -4.2550963     23  2.300                                             
     0      7.2035603     23  2.300                                             
     1     -2.7211652     23  2.300                                             
     1     18.4316424     23  2.300                                             
  local pseudopotential read in
  partial core-charges read in
  partial kinetic energy density read in
  atomic valenz-charges read in
  non local Contribution for L=           2  read in
    real space projection operators read in
  non local Contribution for L=           2  read in
    real space projection operators read in
  non local Contribution for L=           0  read in
    real space projection operators read in
  non local Contribution for L=           0  read in
    real space projection operators read in
  non local Contribution for L=           1  read in
    real space projection operators read in
  non local Contribution for L=           1  read in
    real space projection operators read in
    PAW grid and wavefunctions read in
 
   number of l-projection  operators is LMAX  =           6
   number of lm-projection operators is LMMAX =          18
 
 POTCAR:    PAW_PBE H 15Jun2001                   
   VRHFIN =H: ultrasoft test                                                    
   LEXCH  = PE                                                                  
   EATOM  =    12.4884 eV,    0.9179 Ry                                         
                                                                                
   TITEL  = PAW_PBE H 15Jun2001                                                 
   LULTRA =        F    use ultrasoft PP ?                                      
   IUNSCR =        0    unscreen: 0-lin 1-nonlin 2-no                           
   RPACOR =    0.000    partial core radius                                     
   POMASS =    1.000; ZVAL   =    1.000    mass and valenz                      
   RCORE  =    1.100    outmost cutoff radius                                   
   RWIGS  =    0.700; RWIGS  =    0.370    wigner-seitz radius (au A)           
   ENMAX  =  250.000; ENMIN  =  200.000 eV                                      
   RCLOC  =    0.701    cutoff for local pot                                    
   LCOR   =        T    correct aug charges                                     
   LPAW   =        T    paw PP                                                  
   EAUG   =  400.000                                                            
   RMAX   =    1.123    core radius for proj-oper                               
   RAUG   =    1.200    factor for augmentation sphere                          
   RDEP   =    1.112    radius for radial grids                                 
   RDEPT  =    0.926    core radius for aug-charge                              
                                                                                
   Atomic configuration                                                         
    2 entries                                                                   
     n  l   j            E        occ.                                          
     1  0  0.50        -6.4927   1.0000                                         
     2  1  0.50        -3.4015   0.0000                                         
   Description                                                                  
     l       E           TYP  RCUT    TYP  RCUT                                 
     0     -6.4927494     23  1.100                                             
     0      6.8029130     23  1.100                                             
     1     -4.0817478     23  1.100                                             
  local pseudopotential read in
  atomic valenz-charges read in
  non local Contribution for L=           0  read in
    real space projection operators read in
  non local Contribution for L=           0  read in
    real space projection operators read in
  non local Contribution for L=           1  read in
    real space projection operators read in
    PAW grid and wavefunctions read in
 
   number of l-projection  operators is LMAX  =           3
   number of lm-projection operators is LMMAX =           5
 
 POTCAR:    PAW_PBE N 08Apr2002                   
   VRHFIN =N: s2p3                                                              
   LEXCH  = PE                                                                  
   EATOM  =   264.5486 eV,   19.4438 Ry                                         
                                                                                
   TITEL  = PAW_PBE N 08Apr2002                                                 
   LULTRA =        F    use ultrasoft PP ?                                      
   IUNSCR =        1    unscreen: 0-lin 1-nonlin 2-no                           
   RPACOR =    1.200    partial core radius                                     
   POMASS =   14.001; ZVAL   =    5.000    mass and valenz                      
   RCORE  =    1.500    outmost cutoff radius                                   
   RWIGS  =    1.400; RWIGS  =    0.741    wigner-seitz radius (au A)           
   ENMAX  =  400.000; ENMIN  =  300.000 eV                                      
   ICORE  =        2    local potential                                         
   LCOR   =        T    correct aug charges                                     
   LPAW   =        T    paw PP                                                  
   EAUG   =  627.112                                                            
   DEXC   =    0.000                                                            
   RMAX   =    1.529    core radius for proj-oper                               
   RAUG   =    1.300    factor for augmentation sphere                          
   RDEP   =    1.514    radius for radial grids                                 
   RDEPT  =    1.338    core radius for aug-charge                              
                                                                                
   Atomic configuration                                                         
    4 entries                                                                   
     n  l   j            E        occ.                                          
     1  0  0.50      -384.7179   2.0000                                         
     2  0  0.50       -18.5828   2.0000                                         
     2  1  0.50        -7.0898   3.0000                                         
     3  2  1.50        -6.8029   0.0000                                         
   Description                                                                  
     l       E           TYP  RCUT    TYP  RCUT                                 
     0    -18.5828119     23  1.200                                             
     0    -13.5018863     23  1.200                                             
     1     -7.0897853     23  1.500                                             
     1      9.5240782     23  1.500                                             
     2     -6.8029130      7  1.500                                             
  local pseudopotential read in
  partial core-charges read in
  partial kinetic energy density read in
  atomic valenz-charges read in
  non local Contribution for L=           0  read in
    real space projection operators read in
  non local Contribution for L=           0  read in
    real space projection operators read in
  non local Contribution for L=           1  read in
    real space projection operators read in
  non local Contribution for L=           1  read in
    real space projection operators read in
    PAW grid and wavefunctions read in
 
   number of l-projection  operators is LMAX  =           4
   number of lm-projection operators is LMMAX =           8
 
 POTCAR:    PAW_PBE O 08Apr2002                   
   VRHFIN =O: s2p4                                                              
   LEXCH  = PE                                                                  
   EATOM  =   432.3788 eV,   31.7789 Ry                                         
                                                                                
   TITEL  = PAW_PBE O 08Apr2002                                                 
   LULTRA =        F    use ultrasoft PP ?                                      
   IUNSCR =        1    unscreen: 0-lin 1-nonlin 2-no                           
   RPACOR =    1.200    partial core radius                                     
   POMASS =   16.000; ZVAL   =    6.000    mass and valenz                      
   RCORE  =    1.520    outmost cutoff radius                                   
   RWIGS  =    1.550; RWIGS  =    0.820    wigner-seitz radius (au A)           
   ENMAX  =  400.000; ENMIN  =  300.000 eV                                      
   ICORE  =        2    local potential                                         
   LCOR   =        T    correct aug charges                                     
   LPAW   =        T    paw PP                                                  
   EAUG   =  605.392                                                            
   DEXC   =    0.000                                                            
   RMAX   =    1.553    core radius for proj-oper                               
   RAUG   =    1.300    factor for augmentation sphere                          
   RDEP   =    1.550    radius for radial grids                                 
   RDEPT  =    1.329    core radius for aug-charge                              
                                                                                
   Atomic configuration                                                         
    4 entries                                                                   
     n  l   j            E        occ.                                          
     1  0  0.50      -514.6923   2.0000                                         
     2  0  0.50       -23.9615   2.0000                                         
     2  1  0.50        -9.0305   4.0000                                         
     3  2  1.50        -9.5241   0.0000                                         
   Description                                                                  
     l       E           TYP  RCUT    TYP  RCUT                                 
     0    -23.9615318     23  1.200                                             
     0     -9.5240782     23  1.200                                             
     1     -9.0304911     23  1.520                                             
     1      8.1634956     23  1.520                                             
     2     -9.5240782      7  1.500                                             
  local pseudopotential read in
  partial core-charges read in
  partial kinetic energy density read in
  kinetic energy density of atom read in
  atomic valenz-charges read in
  non local Contribution for L=           0  read in
    real space projection operators read in
  non local Contribution for L=           0  read in
    real space projection operators read in
  non local Contribution for L=           1  read in
    real space projection operators read in
  non local Contribution for L=           1  read in
    real space projection operators read in
    PAW grid and wavefunctions read in
 
   number of l-projection  operators is LMAX  =           4
   number of lm-projection operators is LMMAX =           8
 
 Optimization of the real space projectors (new method)

 maximal supplied QI-value         = 25.13
 optimisation between [QCUT,QGAM] = [ 12.32, 24.88] = [ 42.47,173.37] Ry 
 Optimized for a Real-space Cutoff    1.06 Angstroem

   l    n(q)    QCUT    max X(q) W(low)/X(q) W(high)/X(q)  e(spline) 
   0      8    12.315   115.676    0.34E-03    0.18E-03    0.23E-06
   0      8    12.315    87.132    0.34E-03    0.18E-03    0.22E-06
   1      7    12.315     4.429    0.45E-03    0.12E-03    0.18E-06
   1      7    12.315     2.733    0.35E-03    0.97E-04    0.15E-06
 Optimization of the real space projectors (new method)

 maximal supplied QI-value         = 16.25
 optimisation between [QCUT,QGAM] = [ 12.51, 25.03] = [ 43.85,175.40] Ry 
 Optimized for a Real-space Cutoff    1.35 Angstroem

   l    n(q)    QCUT    max X(q) W(low)/X(q) W(high)/X(q)  e(spline) 
   2      9    12.514    80.901    0.12E-03    0.34E-03    0.58E-06
   2      9    12.514    75.754    0.12E-03    0.34E-03    0.59E-06
   0     10    12.514    58.752    0.17E-03    0.81E-04    0.93E-07
   0     10    12.514    30.679    0.15E-03    0.74E-04    0.88E-07
   1     10    12.514    17.977    0.11E-03    0.79E-04    0.24E-06
   1     10    12.514    13.559    0.97E-04    0.61E-04    0.20E-06
 Optimization of the real space projectors (new method)

 maximal supplied QI-value         = 34.20
 optimisation between [QCUT,QGAM] = [ 12.31, 24.97] = [ 42.46,174.58] Ry 
 Optimized for a Real-space Cutoff    1.00 Angstroem

   l    n(q)    QCUT    max X(q) W(low)/X(q) W(high)/X(q)  e(spline) 
   0      7    12.313    19.460    0.14E-03    0.42E-03    0.16E-06
   0      7    12.313    12.209    0.12E-03    0.40E-03    0.16E-06
   1      7    12.313     4.655    0.33E-03    0.59E-03    0.89E-07
 Optimization of the real space projectors (new method)

 maximal supplied QI-value         = 25.13
 optimisation between [QCUT,QGAM] = [ 12.32, 24.88] = [ 42.47,173.37] Ry 
 Optimized for a Real-space Cutoff    1.20 Angstroem

   l    n(q)    QCUT    max X(q) W(low)/X(q) W(high)/X(q)  e(spline) 
   0      9    12.315    79.467    0.14E-03    0.22E-04    0.37E-06
   0      9    12.315    66.151    0.14E-03    0.23E-04    0.36E-06
   1      8    12.315    22.077    0.30E-03    0.54E-03    0.45E-06
   1      8    12.315    15.894    0.30E-03    0.55E-03    0.45E-06
 Optimization of the real space projectors (new method)

 maximal supplied QI-value         = 24.76
 optimisation between [QCUT,QGAM] = [ 12.38, 25.00] = [ 42.90,175.06] Ry 
 Optimized for a Real-space Cutoff    1.13 Angstroem

   l    n(q)    QCUT    max X(q) W(low)/X(q) W(high)/X(q)  e(spline) 
   0      8    12.378    20.381    0.16E-03    0.54E-05    0.27E-06
   0      8    12.378    15.268    0.17E-03    0.61E-05    0.29E-06
   1      8    12.378     5.964    0.38E-03    0.23E-03    0.28E-06
   1      8    12.378     5.382    0.33E-03    0.20E-03    0.25E-06
  PAW_PBE C 08Apr2002                   :
 energy of atom  1       EATOM= -147.1560
 kinetic energy error for atom=    0.0057 (will be added to EATOM!!)
  PAW_PBE Fe 06Sep2000                  :
 energy of atom  2       EATOM= -594.3153
 kinetic energy error for atom=    0.0017 (will be added to EATOM!!)
  PAW_PBE H 15Jun2001                   :
 energy of atom  3       EATOM=  -12.4884
 kinetic energy error for atom=    0.0004 (will be added to EATOM!!)
  PAW_PBE N 08Apr2002                   :
 energy of atom  4       EATOM= -264.5486
 kinetic energy error for atom=    0.0103 (will be added to EATOM!!)
  PAW_PBE O 08Apr2002                   :
 energy of atom  5       EATOM= -432.3788
 kinetic energy error for atom=    0.0168 (will be added to EATOM!!)
 
 
 POSCAR: FeH_5
  positions in direct lattice
  velocities in cartesian coordinates
 exchange correlation table for  LEXCH =        8
   RHO(1)=    0.500       N(1)  =     2000
   RHO(2)=  100.500       N(2)  =     4000
 


--------------------------------------------------------------------------------------------------------


 ion  position               nearest neighbor table
   1  0.865  0.966  0.101- 107 1.09 117 1.35  65 1.40
   2  0.930  0.978  0.436- 112 1.09 118 1.35  65 1.40
   3  0.862  0.818  0.898- 116 1.09 119 1.35  66 1.40
   4  0.634  0.465  0.611- 110 1.09 120 1.35  67 1.40
   5  0.574  0.304  0.074- 111 1.09 121 1.35  68 1.40
   6  0.069  0.803  0.066- 115 1.09 122 1.35  69 1.40
   7  0.569  0.478  0.944- 101 1.09 123 1.35  67 1.40
   8  0.638  0.318  0.407- 113 1.09 124 1.35  68 1.40
   9  0.425  0.477  0.446- 114 1.09 125 1.35  70 1.40
  10  0.134  0.815  0.401- 104 1.09 126 1.35  69 1.40
  11  0.074  0.977  0.936- 105 1.09 127 1.35  71 1.40
  12  0.431  0.302  0.573- 102 1.09 128 1.35  72 1.40
  13  0.926  0.804  0.564- 108 1.09 129 1.35  66 1.40
  14  0.138  0.963  0.603- 109 1.09 130 1.35  71 1.40
  15  0.366  0.315  0.908- 106 1.09 131 1.35  72 1.40
  16  0.361  0.463  0.111- 103 1.09 132 1.35  70 1.40
  17  0.787  0.042  0.450- 141 1.23 133 1.41  33 1.48
  18  0.860  0.072  0.066- 142 1.23 133 1.42  34 1.48
  19  0.854  0.712  0.941- 143 1.23 134 1.42  35 1.48
  20  0.639  0.571  0.570- 144 1.23 135 1.42  36 1.48
  21  0.647  0.212  0.449- 145 1.23 136 1.42  37 1.48
  22  0.212  0.739  0.057- 146 1.23 137 1.41  38 1.48
  23  0.712  0.542  0.955- 147 1.23 135 1.41  39 1.48
  24  0.719  0.242  0.063- 148 1.23 136 1.41  40 1.48
  25  0.281  0.539  0.455- 149 1.23 138 1.41  41 1.48
  26  0.139  0.710  0.442- 150 1.23 137 1.42  42 1.48
  27  0.147  0.069  0.562- 151 1.23 139 1.42  43 1.48
  28  0.361  0.209  0.944- 152 1.23 140 1.42  44 1.48
  29  0.781  0.741  0.555- 153 1.23 134 1.41  45 1.48
  30  0.220  0.039  0.947- 154 1.23 139 1.41  46 1.48
  31  0.288  0.239  0.559- 155 1.23 140 1.41  47 1.48
  32  0.353  0.569  0.070- 156 1.23 138 1.42  48 1.48
  33  0.751  0.086  0.445-  49 1.39  73 1.42  17 1.48
  34  0.824  0.115  0.072-  50 1.39  73 1.42  18 1.48
  35  0.818  0.669  0.939-  51 1.39  74 1.42  19 1.48
  36  0.675  0.615  0.572-  52 1.39  75 1.42  20 1.48
  37  0.683  0.169  0.444-  53 1.39  76 1.42  21 1.48
  38  0.249  0.695  0.067-  54 1.39  77 1.42  22 1.48
  39  0.749  0.586  0.946-  55 1.39  75 1.42  23 1.48
  40  0.756  0.198  0.071-  56 1.39  76 1.42  24 1.48
  41  0.244  0.583  0.446-  57 1.39  78 1.42  25 1.48
  42  0.175  0.666  0.439-  58 1.39  77 1.42  26 1.48
  43  0.183  0.112  0.566-  59 1.39  79 1.42  27 1.48
  44  0.325  0.165  0.938-  60 1.39  80 1.42  28 1.48
  45  0.744  0.698  0.565-  61 1.39  74 1.42  29 1.48
  46  0.256  0.082  0.939-  62 1.39  79 1.42  30 1.48
  47  0.252  0.195  0.565-  63 1.39  80 1.42  31 1.48
  48  0.318  0.612  0.073-  64 1.39  78 1.42  32 1.48
  49  0.698  0.092  0.624-  88 1.09  33 1.39  53 1.40
  50  0.843  0.151  0.893-  99 1.09  34 1.39  56 1.40
  51  0.837  0.633  0.120-  93 1.09  35 1.39  55 1.40
  52  0.656  0.650  0.391-  90 1.09  36 1.39  61 1.40
  53  0.664  0.133  0.624-  98 1.09  37 1.39  49 1.40
  54  0.302  0.689  0.889-  96 1.09  38 1.39  64 1.40
  55  0.802  0.592  0.123-  86 1.09  39 1.39  51 1.40
  56  0.809  0.192  0.892-  87 1.09  40 1.39  50 1.40
  57  0.191  0.590  0.623-  95 1.09  41 1.39  58 1.40
  58  0.156  0.631  0.620-  91 1.09  42 1.39  57 1.40
  59  0.164  0.148  0.386-  92 1.09  43 1.39  63 1.40
  60  0.344  0.130  0.117-  85 1.09  44 1.39  62 1.40
  61  0.691  0.691  0.387-  89 1.09  45 1.39  52 1.40
  62  0.310  0.089  0.118- 100 1.09  46 1.39  60 1.40
  63  0.199  0.189  0.386-  94 1.09  47 1.39  59 1.40
  64  0.337  0.647  0.892-  97 1.09  48 1.39  54 1.40
  65  0.876  0.996  0.265-   2 1.40   1 1.40 133 1.42
  66  0.871  0.787  0.735-  13 1.40   3 1.40 134 1.42
  67  0.623  0.496  0.773-   7 1.40   4 1.40 135 1.42
  68  0.629  0.287  0.245-   5 1.40   8 1.40 136 1.42
  69  0.123  0.785  0.238-   6 1.40  10 1.40 137 1.42
  70  0.370  0.494  0.274-   9 1.40  16 1.40 138 1.42
  71  0.129  0.994  0.765-  11 1.40  14 1.40 139 1.42
  72  0.376  0.284  0.745-  12 1.40  15 1.40 140 1.42
  73  0.771  0.121  0.258-  33 1.42  34 1.42  76 1.43
  74  0.764  0.663  0.754-  45 1.42  35 1.42  75 1.43
  75  0.729  0.621  0.757-  39 1.42  36 1.42  74 1.43
  76  0.736  0.163  0.258-  40 1.42  37 1.42  73 1.43
  77  0.229  0.660  0.254-  38 1.42  42 1.42  78 1.43
  78  0.264  0.618  0.258-  41 1.42  48 1.42  77 1.43
  79  0.237  0.118  0.753-  46 1.42  43 1.42  80 1.43
  80  0.272  0.160  0.752-  47 1.42  44 1.42  79 1.43
  81  0.974  0.891  0.999- 119 2.01 117 2.01 127 2.02 122 2.02  82 2.87  82 2.87
  82  0.025  0.890  0.500- 126 2.00 130 2.01 118 2.02 129 2.02  81 2.87  81 2.87
  83  0.525  0.391  0.509- 120 2.00 124 2.00 128 2.02 125 2.02  84 2.87  84 2.87
  84  0.474  0.390  0.010- 131 2.01 132 2.01 121 2.02 123 2.02  83 2.87  83 2.87
  85  0.386  0.135  0.257-  60 1.09
  86  0.816  0.564  0.265-  55 1.09
  87  0.824  0.220  0.752-  56 1.09
  88  0.684  0.064  0.764-  49 1.09
  89  0.676  0.719  0.245-  61 1.09
  90  0.615  0.644  0.252-  52 1.09
  91  0.115  0.636  0.760-  58 1.09
  92  0.123  0.142  0.246-  59 1.09
  93  0.878  0.639  0.260-  51 1.09
  94  0.185  0.217  0.245-  63 1.09
  95  0.176  0.562  0.765-  57 1.09
  96  0.317  0.716  0.748-  54 1.09
  97  0.378  0.642  0.753-  64 1.09
  98  0.623  0.139  0.765-  53 1.09
  99  0.885  0.145  0.752-  50 1.09
 100  0.324  0.061  0.258-  62 1.09
 101  0.544  0.492  0.099-   7 1.09
 102  0.455  0.289  0.418-  12 1.09
 103  0.325  0.464  0.949-  16 1.09
 104  0.170  0.814  0.563-  10 1.09
 105  0.050  0.991  0.091-  11 1.09
 106  0.330  0.313  0.071-  15 1.09
 107  0.829  0.968  0.938-   1 1.09
 108  0.949  0.790  0.409-  13 1.09
 109  0.174  0.964  0.441-  14 1.09
 110  0.670  0.467  0.448-   4 1.09
 111  0.551  0.290  0.919-   5 1.09
 112  0.954  0.992  0.592-   2 1.09
 113  0.674  0.317  0.570-   8 1.09
 114  0.449  0.491  0.601-   9 1.09
 115  0.045  0.789  0.911-   6 1.09
 116  0.826  0.816  0.060-   3 1.09
 117  0.911  0.931  0.172-   1 1.35 118 1.37  81 2.01
 118  0.951  0.939  0.378-   2 1.35 117 1.37  82 2.02
 119  0.908  0.852  0.825-   3 1.35 129 1.37  81 2.01
 120  0.589  0.431  0.683-   4 1.35 123 1.37  83 2.00
 121  0.552  0.343  0.130-   5 1.35 124 1.37  84 2.02
 122  0.049  0.842  0.122-   6 1.35 126 1.37  81 2.02
 123  0.549  0.439  0.887-   7 1.35 120 1.37  84 2.02
 124  0.591  0.352  0.335-   8 1.35 121 1.37  83 2.00
 125  0.448  0.437  0.389-   9 1.35 132 1.37  83 2.02
 126  0.089  0.850  0.327-  10 1.35 122 1.37  82 2.00
 127  0.052  0.938  0.879-  11 1.35 130 1.37  81 2.02
 128  0.451  0.342  0.631-  12 1.35 131 1.37  83 2.02
 129  0.948  0.843  0.621-  13 1.35 119 1.37  82 2.02
 130  0.091  0.929  0.675-  14 1.35 127 1.37  82 2.01
 131  0.411  0.350  0.836-  15 1.35 128 1.37  84 2.01
 132  0.408  0.429  0.184-  16 1.35 125 1.37  84 2.01
 133  0.839  0.038  0.260-  17 1.41  18 1.42  65 1.42
 134  0.834  0.746  0.744-  29 1.41  19 1.42  66 1.42
 135  0.660  0.538  0.765-  23 1.41  20 1.42  67 1.42
 136  0.667  0.246  0.254-  24 1.41  21 1.42  68 1.42
 137  0.160  0.743  0.246-  22 1.41  26 1.42  69 1.42
 138  0.333  0.535  0.265-  25 1.41  32 1.42  70 1.42
 139  0.167  0.035  0.757-  30 1.41  27 1.42  71 1.42
 140  0.340  0.243  0.750-  31 1.41  28 1.42  72 1.42
 141  0.772  0.010  0.610-  17 1.23
 142  0.904  0.065  0.903-  18 1.23
 143  0.898  0.719  0.102-  19 1.23
 144  0.594  0.564  0.408-  20 1.23
 145  0.603  0.219  0.612-  21 1.23
 146  0.227  0.770  0.896-  22 1.23
 147  0.727  0.511  0.116-  23 1.23
 148  0.733  0.273  0.902-  24 1.23
 149  0.266  0.508  0.617-  25 1.23
 150  0.094  0.717  0.603-  26 1.23
 151  0.103  0.062  0.399-  27 1.23
 152  0.405  0.216  0.107-  28 1.23
 153  0.767  0.772  0.392-  29 1.23
 154  0.234  0.008  0.108-  30 1.23
 155  0.273  0.270  0.400-  31 1.23
 156  0.398  0.562  0.908-  32 1.23
 

IMPORTANT INFORMATION: All symmetrisations will be switched off!
NOSYMM: (Re-)initialisation of all symmetry stuff for point group C_1.


----------------------------------------------------------------------------------------

                                     Primitive cell                                     

  volume of cell :    2931.5104

  direct lattice vectors                    reciprocal lattice vectors
    17.724952531  0.002771805 -0.005023709     0.056417647 -0.000006634  0.000020728
     0.002816991 30.592989754  2.123455922    -0.000005870  0.032866166 -0.002578000
    -0.001946978  0.426372195  5.435699587     0.000054435 -0.012839173  0.184976075

  length of vectors
    17.724953460 30.666595753  5.452396449     0.056417652  0.032967120  0.185421130

  position of ions in fractional coordinates (direct lattice)
     0.865186499  0.965833746  0.100931487
     0.930103018  0.978309171  0.436055922
     0.861566778  0.817788345  0.897772090
     0.634078074  0.465302384  0.610565854
     0.574193557  0.304094609  0.073877761
     0.069016544  0.802627938  0.066109571
     0.568873556  0.478214686  0.944057098
     0.638413080  0.318049544  0.407430394
     0.425447835  0.476653243  0.445504845
     0.133901332  0.815493140  0.400584651
     0.074009186  0.976862442  0.936058909
     0.430725778  0.302422362  0.573397136
     0.925740593  0.804075708  0.563873032
     0.138303877  0.962965116  0.602772914
     0.365681916  0.314906074  0.908041145
     0.361254550  0.462939625  0.111417279
     0.787094840  0.042053856  0.450418680
     0.859598859  0.071806159  0.065534276
     0.853607795  0.712006231  0.940907761
     0.639379034  0.571251820  0.569594609
     0.647369026  0.212175930  0.449389181
     0.212356134  0.738787138  0.056969738
     0.712284353  0.542037286  0.955016877
     0.719431186  0.241847164  0.063337273
     0.280708323  0.539471645  0.455176610
     0.139412588  0.709532570  0.441894199
     0.147211528  0.068826413  0.561625641
     0.360523028  0.208864464  0.944144951
     0.781058823  0.741185460  0.554666560
     0.219556493  0.039016171  0.947308320
     0.287865265  0.238656775  0.559198117
     0.353351466  0.568760128  0.069677652
     0.751330138  0.085734862  0.444731543
     0.824299784  0.115367250  0.071952864
     0.817607080  0.668536756  0.938571603
     0.675231907  0.614760254  0.572329292
     0.683175708  0.168725527  0.444399484
     0.248715554  0.695187437  0.066549053
     0.748583650  0.585640960  0.945541796
     0.756013505  0.198335928  0.071182071
     0.244237054  0.583056979  0.445629721
     0.175329526  0.666028891  0.439267775
     0.183282905  0.112194141  0.566367355
     0.325046108  0.165346146  0.938026118
     0.744381286  0.697649491  0.565031780
     0.256280244  0.082483226  0.939422061
     0.251935886  0.195037055  0.565226657
     0.317525150  0.612252769  0.072666728
     0.698094452  0.092026246  0.624121385
     0.843404627  0.150795577  0.892643486
     0.836555602  0.633389180  0.120015372
     0.656206982  0.649918082  0.391059864
     0.664196300  0.133324067  0.624020567
     0.302445438  0.688728875  0.889005356
     0.802222082  0.592145026  0.123461903
     0.809397214  0.192064396  0.892220974
     0.190645359  0.589575712  0.623486171
     0.156358230  0.630844737  0.620285135
     0.164485186  0.147584882  0.386294198
     0.344162275  0.129877408  0.117198442
     0.690646721  0.691145704  0.387377282
     0.309921693  0.088665294  0.117960321
     0.198637596  0.188804285  0.385751974
     0.336665314  0.647460822  0.891996143
     0.875686131  0.996397581  0.264874020
     0.870892900  0.786850835  0.735458057
     0.623353782  0.496111899  0.772848495
     0.629286829  0.287060445  0.245364773
     0.123258762  0.784669770  0.238329351
     0.370496158  0.493849251  0.273946508
     0.129151423  0.993915801  0.765091377
     0.376453514  0.284284984  0.744668291
     0.771075721  0.121053877  0.258488679
     0.763952614  0.662642866  0.753554271
     0.728907660  0.620670311  0.757303207
     0.736454689  0.163066190  0.258015195
     0.228944200  0.660117019  0.254302121
     0.263908537  0.618120028  0.257681137
     0.236715760  0.117781969  0.752631435
     0.271594459  0.159730528  0.751810323
     0.974315881  0.890786702  0.999471210
     0.024864548  0.890362021  0.500203486
     0.524914536  0.390554053  0.509247782
     0.474269421  0.390083333  0.009537777
     0.385684874  0.135133639  0.257424434
     0.816435576  0.564467839  0.265208563
     0.823591282  0.219932969  0.751787727
     0.683773137  0.064131192  0.764191062
     0.676465427  0.718808791  0.245485982
     0.614584795  0.644402638  0.251635992
     0.114843707  0.636363423  0.759872869
     0.123160836  0.142268027  0.245583629
     0.878136676  0.638927478  0.259516248
     0.184524624  0.216691508  0.245225187
     0.176414084  0.561883136  0.765039133
     0.316806102  0.716459625  0.747895652
     0.378263394  0.641931093  0.752688068
     0.622920665  0.138691311  0.764645450
     0.884655592  0.145440442  0.751904630
     0.324153187  0.060765722  0.258248275
     0.544463421  0.491833826  0.098894595
     0.455031722  0.289028712  0.417642580
     0.325368417  0.464293453  0.948804087
     0.169822200  0.813677871  0.563359120
     0.050413156  0.990836954  0.090955941
     0.329663108  0.312920722  0.070500422
     0.829202156  0.967811024  0.938224756
     0.949357693  0.790167233  0.408809815
     0.174304979  0.964218941  0.440629826
     0.670145315  0.467078579  0.448287342
     0.550624560  0.290085436  0.918982186
     0.954344517  0.991690349  0.592017350
     0.674364582  0.316818187  0.569810980
     0.449049816  0.490579704  0.600597720
     0.044769562  0.789029549  0.910867290
     0.825684872  0.816417610  0.060261082
     0.910828516  0.931103773  0.172406024
     0.950636604  0.938785070  0.377682750
     0.908300297  0.851927436  0.825106936
     0.588527637  0.430604258  0.683014362
     0.551957581  0.343453046  0.130308311
     0.048718262  0.842344711  0.122324727
     0.548534599  0.438545232  0.887289214
     0.591353134  0.352049463  0.334609489
     0.447503569  0.437289593  0.388661262
     0.088522354  0.850256340  0.327174700
     0.051771790  0.937538180  0.879095336
     0.450943142  0.342028047  0.631264943
     0.947656896  0.843481343  0.620547204
     0.091195793  0.928984531  0.674893196
     0.411057856  0.349712345  0.836232660
     0.408136581  0.428840544  0.184005171
     0.839467005  0.037910778  0.259626382
     0.833770677  0.745546524  0.744356578
     0.659587499  0.537651742  0.765397282
     0.666821987  0.245896217  0.253529691
     0.159543344  0.743130814  0.246155406
     0.333335610  0.535141160  0.265412103
     0.166733772  0.035056239  0.757354412
     0.340344977  0.242753670  0.749960128
     0.772306820  0.010482518  0.609781481
     0.904000358  0.064758243  0.902526888
     0.898461302  0.719227848  0.102408434
     0.594482421  0.564013339  0.408239153
     0.602877310  0.219224320  0.612138487
     0.226934402  0.770099250  0.895719555
     0.726868210  0.510745231  0.116493501
     0.733493313  0.273296898  0.902394856
     0.266446888  0.508182706  0.616921769
     0.094477374  0.716755731  0.603011520
     0.102514292  0.061861455  0.399133547
     0.405043813  0.215887047  0.107032786
     0.766877481  0.772405661  0.392310703
     0.233733358  0.007537468  0.108040432
     0.273136935  0.270228267  0.399685470
     0.398210596  0.561568558  0.908281043

  ion indices of the primitive-cell ions
   primitive index   ion index
                 1           1
                 2           2
                 3           3
                 4           4
                 5           5
                 6           6
                 7           7
                 8           8
                 9           9
                10          10
                11          11
                12          12
                13          13
                14          14
                15          15
                16          16
                17          17
                18          18
                19          19
                20          20
                21          21
                22          22
                23          23
                24          24
                25          25
                26          26
                27          27
                28          28
                29          29
                30          30
                31          31
                32          32
                33          33
                34          34
                35          35
                36          36
                37          37
                38          38
                39          39
                40          40
                41          41
                42          42
                43          43
                44          44
                45          45
                46          46
                47          47
                48          48
                49          49
                50          50
                51          51
                52          52
                53          53
                54          54
                55          55
                56          56
                57          57
                58          58
                59          59
                60          60
                61          61
                62          62
                63          63
                64          64
                65          65
                66          66
                67          67
                68          68
                69          69
                70          70
                71          71
                72          72
                73          73
                74          74
                75          75
                76          76
                77          77
                78          78
                79          79
                80          80
                81          81
                82          82
                83          83
                84          84
                85          85
                86          86
                87          87
                88          88
                89          89
                90          90
                91          91
                92          92
                93          93
                94          94
                95          95
                96          96
                97          97
                98          98
                99          99
               100         100
               101         101
               102         102
               103         103
               104         104
               105         105
               106         106
               107         107
               108         108
               109         109
               110         110
               111         111
               112         112
               113         113
               114         114
               115         115
               116         116
               117         117
               118         118
               119         119
               120         120
               121         121
               122         122
               123         123
               124         124
               125         125
               126         126
               127         127
               128         128
               129         129
               130         130
               131         131
               132         132
               133         133
               134         134
               135         135
               136         136
               137         137
               138         138
               139         139
               140         140
               141         141
               142         142
               143         143
               144         144
               145         145
               146         146
               147         147
               148         148
               149         149
               150         150
               151         151
               152         152
               153         153
               154         154
               155         155
               156         156

----------------------------------------------------------------------------------------

 
 

Automatic generation of k-mesh.
 generate k-points for:    2    1    4
Space group operators:
 irot       det(A)        alpha          n_x          n_y          n_z        tau_x        tau_y        tau_z
    1     1.000000     0.000000     1.000000     0.000000     0.000000     0.000000     0.000000     0.000000
 
 Subroutine IBZKPT returns following result:
 ===========================================
 
 Found      6 irreducible k-points:
 
 Following reciprocal coordinates:
            Coordinates               Weight
  0.000000  0.000000  0.000000      1.000000
  0.500000  0.000000 -0.000000      1.000000
 -0.000000 -0.000000  0.250000      2.000000
  0.500000  0.000000  0.250000      2.000000
 -0.000000 -0.000000  0.500000      1.000000
  0.500000  0.000000  0.500000      1.000000
 
 Following cartesian coordinates:
            Coordinates               Weight
  0.000000  0.000000  0.000000      1.000000
  0.028209 -0.000003  0.000010      1.000000
  0.000014 -0.003210  0.046244      2.000000
  0.028222 -0.003213  0.046254      2.000000
  0.000027 -0.006420  0.092488      1.000000
  0.028236 -0.006423  0.092498      1.000000
 


--------------------------------------------------------------------------------------------------------




 Dimension of arrays:
   k-points           NKPTS =      6   k-points in BZ     NKDIM =      6   number of bands    NBANDS=    416
   number of dos      NEDOS =    301   number of ions     NIONS =    156
   non local maximal  LDIM  =      6   non local SUM 2l+1 LMDIM =     18
   total plane-waves  NPLWV = 746496
   max r-space proj   IRMAX =   2650   max aug-charges    IRDMAX=   9269
   dimension x,y,z NGX =   108 NGY =  192 NGZ =   36
   dimension x,y,z NGXF=   216 NGYF=  384 NGZF=   72
   support grid    NGXF=   216 NGYF=  384 NGZF=   72
   ions per type =              80   4  32  24  16
   NGX,Y,Z   is equivalent  to a cutoff of  10.13, 10.41, 10.98 a.u.
   NGXF,Y,Z  is equivalent  to a cutoff of  20.26, 20.82, 21.95 a.u.

 SYSTEM =  flex_MOF                                
 POSCAR =  FeH_5                                   

 Startparameter for this run:
   NWRITE =      2    write-flag & timer
   PREC   = normal    normal or accurate (medium, high low for compatibility)
   ISTART =      0    job   : 0-new  1-cont  2-samecut
   ICHARG =      2    charge: 1-file 2-atom 10-const
   ISPIN  =      2    spin polarized calculation?
   LNONCOLLINEAR =      F non collinear calculations
   LSORBIT =      F    spin-orbit coupling
   INIWAV =      1    electr: 0-lowe 1-rand  2-diag
   LASPH  =      F    aspherical Exc in radial PAW
   METAGGA=      F    non-selfconsistent MetaGGA calc.

 Electronic Relaxation 1
   ENCUT  =  600.0 eV  44.10 Ry    6.64 a.u.  35.40 61.25 10.89*2*pi/ulx,y,z
   ENINI  =  600.0     initial cutoff
   ENAUG  =  644.9 eV  augmentation charge cutoff
   NELM   =     80;   NELMIN=  3; NELMDL= -8     # of ELM steps 
   EDIFF  = 0.1E-05   stopping-criterion for ELM
   LREAL  =      T    real-space projection
   NLSPLINE    = F    spline interpolate recip. space projectors
   LCOMPAT=      F    compatible to vasp.4.4
   GGA_COMPAT  = T    GGA compatible to vasp.4.4-vasp.4.6
   LMAXPAW     = -100 max onsite density
   LMAXMIX     =    2 max onsite mixed and CHGCAR
   VOSKOWN=      0    Vosko Wilk Nusair interpolation
   ROPT   =   -0.00050  -0.00050  -0.00050  -0.00050
   ROPT   =   -0.00050
 Ionic relaxation
   EDIFFG = -.1E-01   stopping-criterion for IOM
   NSW    =   1000    number of steps for IOM
   NBLOCK =      1;   KBLOCK =   1000    inner block; outer block 
   IBRION =      2    ionic relax: 0-MD 1-quasi-New 2-CG
   NFREE  =      1    steps in history (QN), initial steepest desc. (CG)
   ISIF   =      4    stress and relaxation
   IWAVPR =     11    prediction:  0-non 1-charg 2-wave 3-comb
   ISYM   =      0    0-nonsym 1-usesym 2-fastsym
   LCORR  =      T    Harris-Foulkes like correction to forces

   POTIM  = 0.5000    time-step for ionic-motion
   TEIN   =    0.0    initial temperature
   TEBEG  =    0.0;   TEEND  =   0.0 temperature during run
   SMASS  =  -3.00    Nose mass-parameter (am)
   estimated Nose-frequenzy (Omega)   =  0.10E-29 period in steps = 0.13E+47 mass=  -0.718E-26a.u.
   SCALEE = 1.0000    scale energy and forces
   NPACO  =    256;   APACO  = 16.0  distance and # of slots for P.C.
   PSTRESS=    0.0 pullay stress

  Mass of Ions in am
   POMASS =  12.01 55.85  1.00 14.00 16.00
  Ionic Valenz
   ZVAL   =   4.00  8.00  1.00  5.00  6.00
  Atomic Wigner-Seitz radii
   RWIGS  =  -1.00 -1.00 -1.00 -1.00 -1.00
  virtual crystal weights 
   VCA    =   1.00  1.00  1.00  1.00  1.00
   NELECT =     600.0000    total number of electrons
   NUPDOWN=      16.6500    fix difference up-down

 DOS related values:
   EMIN   =  10.00;   EMAX   =-10.00  energy-range for DOS
   EFERMI =   0.00
   ISMEAR =     0;   SIGMA  =   0.05  broadening in eV -4-tet -1-fermi 0-gaus

 Electronic relaxation 2 (details)
   IALGO  =     38    algorithm
   LDIAG  =      T    sub-space diagonalisation (order eigenvalues)
   LSUBROT=      F    optimize rotation matrix (better conditioning)
   TURBO    =      0    0=normal 1=particle mesh
   IRESTART =      0    0=no restart 2=restart with 2 vectors
   NREBOOT  =      0    no. of reboots
   NMIN     =      0    reboot dimension
   EREF     =   0.00    reference energy to select bands
   IMIX   =      4    mixing-type and parameters
     AMIX     =   0.40;   BMIX     =  1.00
     AMIX_MAG =   1.60;   BMIX_MAG =  1.00
     AMIN     =   0.10
     WC   =   100.;   INIMIX=   1;  MIXPRE=   1;  MAXMIX= -45

 Intra band minimization:
   WEIMIN = 0.0010     energy-eigenvalue tresh-hold
   EBREAK =  0.60E-09  absolut break condition
   DEPER  =   0.30     relativ break condition  

   TIME   =   0.40     timestep for ELM

  volume/ion in A,a.u.               =      18.79       126.81
  Fermi-wavevector in a.u.,A,eV,Ry     =   0.964780  1.823169 12.664298  0.930800
  Thomas-Fermi vector in A             =   2.094440
 
 Write flags
   LWAVE        =      T    write WAVECAR
   LDOWNSAMPLE  =      F    k-point downsampling of WAVECAR
   LCHARG       =      T    write CHGCAR
   LVTOT        =      F    write LOCPOT, total local potential
   LVHAR        =      F    write LOCPOT, Hartree potential only
   LELF         =      F    write electronic localiz. function (ELF)
   LORBIT       =     11    0 simple, 1 ext, 2 COOP (PROOUT), +10 PAW based schemes


 Dipole corrections
   LMONO  =      F    monopole corrections only (constant potential shift)
   LDIPOL =      F    correct potential (dipole corrections)
   IDIPOL =      0    1-x, 2-y, 3-z, 4-all directions 
   EPSILON=  1.0000000 bulk dielectric constant

 Exchange correlation treatment:
   GGA     =    PE    GGA type
   LEXCH   =     8    internal setting for exchange type
   VOSKOWN=      0    Vosko Wilk Nusair interpolation
   LHFCALC =     F    Hartree Fock is set to
   LHFONE  =     F    Hartree Fock one center treatment
   AEXX    =    0.0000 exact exchange contribution

 Linear response parameters
   LEPSILON=     F    determine dielectric tensor
   LRPA    =     F    only Hartree local field effects (RPA)
   LNABLA  =     F    use nabla operator in PAW spheres
   LVEL    =     F    velocity operator in full k-point grid
   LINTERFAST=   F  fast interpolation
   KINTER  =     0    interpolate to denser k-point grid
   CSHIFT  =0.1000    complex shift for real part using Kramers Kronig
   OMEGAMAX=  -1.0    maximum frequency
   DEG_THRESHOLD= 0.2000000E-02 threshold for treating states as degnerate
   RTIME   =   -0.100 relaxation time in fs
  (WPLASMAI=    0.000 imaginary part of plasma frequency in eV, 0.658/RTIME)
   DFIELD  = 0.0000000 0.0000000 0.0000000 field for delta impulse in time
 
 Orbital magnetization related:
   ORBITALMAG=     F  switch on orbital magnetization
   LCHIMAG   =     F  perturbation theory with respect to B field
   DQ        =  0.001000  dq finite difference perturbation B field
   LLRAUG    =     F  two centre corrections for induced B field



--------------------------------------------------------------------------------------------------------


 conjugate gradient relaxation of ions
 charge density and potential will be updated during run
 spin polarized calculation
 Variant of blocked Davidson
 Davidson routine will perform the subspace rotation
 perform sub-space diagonalisation
    after iterative eigenvector-optimisation
 modified Broyden-mixing scheme, WC =      100.0
 initial mixing is a Kerker type mixing with AMIX =  0.4000 and BMIX =      1.0000
 Hartree-type preconditioning will be used
 using additional bands          116
 real space projection scheme for non local part
 use partial core corrections
 calculate Harris-corrections to forces 
   (improved forces if not selfconsistent)
 use gradient corrections 
 use of overlap-Matrix (Vanderbilt PP)
 Gauss-broadening in eV      SIGMA  =   0.05


--------------------------------------------------------------------------------------------------------


  energy-cutoff  :      600.00
  volume of cell :     2931.51
      direct lattice vectors                 reciprocal lattice vectors
    17.724952531  0.002771805 -0.005023709     0.056417647 -0.000006634  0.000020728
     0.002816991 30.592989754  2.123455922    -0.000005870  0.032866166 -0.002578000
    -0.001946978  0.426372195  5.435699587     0.000054435 -0.012839173  0.184976075

  length of vectors
    17.724953460 30.666595753  5.452396449     0.056417652  0.032967120  0.185421130


 
 k-points in units of 2pi/SCALE and weight: read from INCAR                         
   0.00000000  0.00000000  0.00000000       0.125
   0.02820882 -0.00000332  0.00001036       0.125
   0.00001361 -0.00320979  0.04624402       0.250
   0.02822243 -0.00321311  0.04625438       0.250
   0.00002722 -0.00641959  0.09248804       0.125
   0.02823604 -0.00642290  0.09249840       0.125
 
 k-points in reciprocal lattice and weights: read from INCAR                         
   0.00000000  0.00000000  0.00000000       0.125
   0.50000000  0.00000000 -0.00000000       0.125
  -0.00000000 -0.00000000  0.25000000       0.250
   0.50000000  0.00000000  0.25000000       0.250
  -0.00000000 -0.00000000  0.50000000       0.125
   0.50000000  0.00000000  0.50000000       0.125
 
 position of ions in fractional coordinates (direct lattice) 
   0.86518650  0.96583375  0.10093149
   0.93010302  0.97830917  0.43605592
   0.86156678  0.81778835  0.89777209
   0.63407807  0.46530238  0.61056585
   0.57419356  0.30409461  0.07387776
   0.06901654  0.80262794  0.06610957
   0.56887356  0.47821469  0.94405710
   0.63841308  0.31804954  0.40743039
   0.42544783  0.47665324  0.44550484
   0.13390133  0.81549314  0.40058465
   0.07400919  0.97686244  0.93605891
   0.43072578  0.30242236  0.57339714
   0.92574059  0.80407571  0.56387303
   0.13830388  0.96296512  0.60277291
   0.36568192  0.31490607  0.90804114
   0.36125455  0.46293962  0.11141728
   0.78709484  0.04205386  0.45041868
   0.85959886  0.07180616  0.06553428
   0.85360779  0.71200623  0.94090776
   0.63937903  0.57125182  0.56959461
   0.64736903  0.21217593  0.44938918
   0.21235613  0.73878714  0.05696974
   0.71228435  0.54203729  0.95501688
   0.71943119  0.24184716  0.06333727
   0.28070832  0.53947164  0.45517661
   0.13941259  0.70953257  0.44189420
   0.14721153  0.06882641  0.56162564
   0.36052303  0.20886446  0.94414495
   0.78105882  0.74118546  0.55466656
   0.21955649  0.03901617  0.94730832
   0.28786526  0.23865677  0.55919812
   0.35335147  0.56876013  0.06967765
   0.75133014  0.08573486  0.44473154
   0.82429978  0.11536725  0.07195286
   0.81760708  0.66853676  0.93857160
   0.67523191  0.61476025  0.57232929
   0.68317571  0.16872553  0.44439948
   0.24871555  0.69518744  0.06654905
   0.74858365  0.58564096  0.94554180
   0.75601351  0.19833593  0.07118207
   0.24423705  0.58305698  0.44562972
   0.17532953  0.66602889  0.43926778
   0.18328291  0.11219414  0.56636735
   0.32504611  0.16534615  0.93802612
   0.74438129  0.69764949  0.56503178
   0.25628024  0.08248323  0.93942206
   0.25193589  0.19503705  0.56522666
   0.31752515  0.61225277  0.07266673
   0.69809445  0.09202625  0.62412139
   0.84340463  0.15079558  0.89264349
   0.83655560  0.63338918  0.12001537
   0.65620698  0.64991808  0.39105986
   0.66419630  0.13332407  0.62402057
   0.30244544  0.68872888  0.88900536
   0.80222208  0.59214503  0.12346190
   0.80939721  0.19206440  0.89222097
   0.19064536  0.58957571  0.62348617
   0.15635823  0.63084474  0.62028514
   0.16448519  0.14758488  0.38629420
   0.34416227  0.12987741  0.11719844
   0.69064672  0.69114570  0.38737728
   0.30992169  0.08866529  0.11796032
   0.19863760  0.18880429  0.38575197
   0.33666531  0.64746082  0.89199614
   0.87568613  0.99639758  0.26487402
   0.87089290  0.78685084  0.73545806
   0.62335378  0.49611190  0.77284849
   0.62928683  0.28706045  0.24536477
   0.12325876  0.78466977  0.23832935
   0.37049616  0.49384925  0.27394651
   0.12915142  0.99391580  0.76509138
   0.37645351  0.28428498  0.74466829
   0.77107572  0.12105388  0.25848868
   0.76395261  0.66264287  0.75355427
   0.72890766  0.62067031  0.75730321
   0.73645469  0.16306619  0.25801519
   0.22894420  0.66011702  0.25430212
   0.26390854  0.61812003  0.25768114
   0.23671576  0.11778197  0.75263144
   0.27159446  0.15973053  0.75181032
   0.97431588  0.89078670  0.99947121
   0.02486455  0.89036202  0.50020349
   0.52491454  0.39055405  0.50924778
   0.47426942  0.39008333  0.00953778
   0.38568487  0.13513364  0.25742443
   0.81643558  0.56446784  0.26520856
   0.82359128  0.21993297  0.75178773
   0.68377314  0.06413119  0.76419106
   0.67646543  0.71880879  0.24548598
   0.61458480  0.64440264  0.25163599
   0.11484371  0.63636342  0.75987287
   0.12316084  0.14226803  0.24558363
   0.87813668  0.63892748  0.25951625
   0.18452462  0.21669151  0.24522519
   0.17641408  0.56188314  0.76503913
   0.31680610  0.71645963  0.74789565
   0.37826339  0.64193109  0.75268807
   0.62292067  0.13869131  0.76464545
   0.88465559  0.14544044  0.75190463
   0.32415319  0.06076572  0.25824828
   0.54446342  0.49183383  0.09889459
   0.45503172  0.28902871  0.41764258
   0.32536842  0.46429345  0.94880409
   0.16982220  0.81367787  0.56335912
   0.05041316  0.99083695  0.09095594
   0.32966311  0.31292072  0.07050042
   0.82920216  0.96781102  0.93822476
   0.94935769  0.79016723  0.40880982
   0.17430498  0.96421894  0.44062983
   0.67014531  0.46707858  0.44828734
   0.55062456  0.29008544  0.91898219
   0.95434452  0.99169035  0.59201735
   0.67436458  0.31681819  0.56981098
   0.44904982  0.49057970  0.60059772
   0.04476956  0.78902955  0.91086729
   0.82568487  0.81641761  0.06026108
   0.91082852  0.93110377  0.17240602
   0.95063660  0.93878507  0.37768275
   0.90830030  0.85192744  0.82510694
   0.58852764  0.43060426  0.68301436
   0.55195758  0.34345305  0.13030831
   0.04871826  0.84234471  0.12232473
   0.54853460  0.43854523  0.88728921
   0.59135313  0.35204946  0.33460949
   0.44750357  0.43728959  0.38866126
   0.08852235  0.85025634  0.32717470
   0.05177179  0.93753818  0.87909534
   0.45094314  0.34202805  0.63126494
   0.94765690  0.84348134  0.62054720
   0.09119579  0.92898453  0.67489320
   0.41105786  0.34971234  0.83623266
   0.40813658  0.42884054  0.18400517
   0.83946701  0.03791078  0.25962638
   0.83377068  0.74554652  0.74435658
   0.65958750  0.53765174  0.76539728
   0.66682199  0.24589622  0.25352969
   0.15954334  0.74313081  0.24615541
   0.33333561  0.53514116  0.26541210
   0.16673377  0.03505624  0.75735441
   0.34034498  0.24275367  0.74996013
   0.77230682  0.01048252  0.60978148
   0.90400036  0.06475824  0.90252689
   0.89846130  0.71922785  0.10240843
   0.59448242  0.56401334  0.40823915
   0.60287731  0.21922432  0.61213849
   0.22693440  0.77009925  0.89571956
   0.72686821  0.51074523  0.11649350
   0.73349331  0.27329690  0.90239486
   0.26644689  0.50818271  0.61692177
   0.09447737  0.71675573  0.60301152
   0.10251429  0.06186145  0.39913355
   0.40504381  0.21588705  0.10703279
   0.76687748  0.77240566  0.39231070
   0.23373336  0.00753747  0.10804043
   0.27313693  0.27022827  0.39968547
   0.39821060  0.56156856  0.90828104
 
 position of ions in cartesian coordinates  (Angst):
  15.33791385 29.59317442  2.59519218
  16.48793874 30.11790264  4.44299283
  15.27178600 25.40376362  6.61222862
  11.23912575 14.49707691  4.30371624
  10.17826634  9.33625424  1.04442423
   1.22544724 24.58316685  2.06335010
  10.08276584 15.03411348  6.14422073
  11.31594422  9.90557300  2.88682621
   7.54151802 14.77337792  3.43164533
   2.37491205 25.11954257  3.90844888
   1.31273863 30.28445730  7.16208756
   7.63432950  9.49767870  3.75683129
  16.40987530 24.84206566  4.76781308
   2.45296873 29.71737088  5.32061166
   6.48081375 10.02209539  5.60269096
   6.40430693 14.21121375  1.58684791
  13.95046018  1.48078085  2.53368601
  15.23642366  2.22708973  0.50438348
  15.13033143 22.18594228  6.62211750
  11.33346324 17.72093261  4.30596118
  11.47430800  6.68449749  2.89003863
   3.76597263 22.62658627  1.87738549
  12.62487386 16.99170810  6.33859882
  12.75244159  7.42782718  0.85421997
   4.97617517 16.69890323  3.61833737
   2.47221989 21.89552046  3.90796489
   2.60841775  2.34547534  3.19823857
   6.38900371  6.79334486  5.57379164
  13.84523856 22.91373852  4.58495163
   3.88989394  1.59813581  5.23102957
   5.10198170  7.54044870  3.54496396
   6.26460449 17.43076081  1.58470871
  13.31666666  2.81458946  2.59570680
  14.61085945  3.56239260  0.63195038
  14.49210257 20.85498519  6.51729419
  11.96907096 19.05325106  4.41303423
  12.10886706  5.35319154  2.77047124
   4.41030016 21.29692618  1.83669106
  13.26841845 18.32173555  6.37950325
  13.40072362  6.10013460  0.80428396
   4.32986502 18.02813730  3.65917811
   3.10872848 20.56359259  3.80112985
   3.24789414  3.67434552  3.31592135
   5.76006629  5.45928218  5.44830050
  13.19498813 21.58616085  4.54903140
   4.54095848  2.92466228  5.28027813
   4.46500056  6.20846186  3.48528924
   5.62970144 18.76250589  1.69349112
  12.37273512  3.08340098  3.58444301
  14.94799380  4.99622366  5.16811257
  14.82945892 19.43075868  1.99313890
  11.63230703 20.05149315  3.50245975
  11.77200851  4.34668787  3.67175939
   5.36104030 21.45016091  6.29333206
  14.22077602 18.17035104  1.92446555
  14.34533111  6.25848580  5.25361928
   3.37962686 18.30324931  4.64006381
   2.77201161 19.56433231  4.71046915
   2.91515575  4.68022382  2.41234288
   6.10039766  4.02426233  0.91111550
  12.24287309 21.31129468  3.56981436
   5.49336741  2.76369048  0.82791676
   3.52062278  5.94111207  2.49675153
   5.96746391 20.18901783  6.22178627
  15.52378624 30.59814313  3.55118275
  15.43731995 24.38811236  5.66419701
  11.04880902 15.50879516  5.25131245
  11.15441009  8.88839825  1.94012805
   2.18650210 24.10735290  2.96107921
   6.56788462 15.22615520  2.53589677
   2.29051307 30.73342759  6.26869446
   6.67197164  9.01567693  4.64956856
  13.66711829  3.81574968  1.65824572
  13.54142332 20.59563853  5.49934968
  12.92012764 19.31307388  5.43077696
  13.05358141  5.10073408  1.74505722
   4.05938949 20.30401514  2.78288918
   4.67900584 19.02073926  2.71190208
   4.19464204  3.92485982  4.33999401
   4.81298510  5.20793824  4.42443139
  17.27026613 27.68067580  7.31947686
   0.44225718 27.45217796  4.60947548
   9.30419392 12.16680021  3.59480526
   8.40748326 11.93919664  0.87778666
   6.83612556  4.24496970  1.68429465
  14.47235557 17.38409937  2.63611511
  14.59727222  7.05123129  4.54937272
  12.11853919  2.28969000  4.28665772
  11.99186451 22.09705340  2.85734847
  10.89481167 19.82319740  2.73309076
   2.03591243 19.79256666  5.48115338
   2.18294259  4.45745572  1.63639999
  15.56622548 19.65978632  2.76297519
   3.27082317  6.73430976  1.79217831
   3.12702458 17.51636541  5.35077072
   5.61593525 22.23840201  5.58511498
   6.70504354 19.96056509  5.45259832
  11.04014117  4.57073202  4.44775847
  15.67942414  4.77250127  4.39151980
   5.74526822  1.97001347  1.53116492
   9.65178124 15.09034224  1.57921353
   8.06541672  9.02158487  2.88163339
   5.76660036 14.60957039  6.14168611
   3.01128570 25.13351015  4.78920689
   0.89618489 30.35158560  2.59815451
   5.84400717  9.60415361  1.04603634
  14.69846846 30.01056407  7.15084630
  16.82875000 24.35051465  3.89528334
   3.09140578 29.68669562  4.44173212
  11.87873685 14.48232496  3.42520948
   9.75882212  9.26793546  5.60852855
  16.91735220 30.59383767  5.31904486
  11.95286327  9.93723632  3.76668295
   7.95959927 15.26562270  4.30413726
   0.79398762 24.52726549  6.62644551
  14.63740767 25.00463787  2.05703995
  16.14667944 28.56128197  2.90972944
  16.85189789 28.88391042  4.04166296
  16.10037305 26.41732760  6.28950075
  10.43150762 13.46632128  4.62407346
   9.78413572 10.56434527  1.43485136
   0.86566360 25.82213403  2.45335759
   9.72225757 13.79624568  5.75151341
  10.48204648 10.91455292  2.56342739
   7.93245464 13.54495078  3.03896291
   1.57081269 26.15162707  3.58346053
   0.91858198 29.05706124  6.76905907
   7.99268021 10.73406428  4.15538266
  16.79834138 26.07182689  5.15944288
   1.61774404 28.70842272  5.64071623
   7.28533800 11.05643190  5.28604324
   7.23505131 13.19910032  1.90877046
  14.87911413  1.27282836  1.48753564
  14.77919662 23.12818117  5.62504530
  11.69118146 16.77654661  5.29883589
  11.81958714  7.63264676  1.89691109
   2.82951234 22.83998941  2.91523087
   5.90934861 16.48565631  2.57737454
   2.95397239  1.39585218  4.19035382
   6.03182224  7.74726606  4.59032488
  13.68794403  0.58282610  3.33296826
  16.02178866  2.36846635  5.03883487
  15.92701061 22.04948465  2.07939651
  10.53796668 17.43056391  3.41373635
  10.68539743  6.96939728  3.78988542
   4.02282692 23.94217739  6.50299418
  12.88491647 15.67690794  1.71411708
  13.00014709  8.74775836  5.48179641
   4.72298885 15.81060513  4.43116643
   1.67545201 22.18506994  4.79931404
   1.81645812  2.06299045  2.30041512
   7.17978212  6.65138873  1.03818988
  13.59427898 23.79959448  3.76879993
   4.14272356  0.27730698  0.60210661
   4.84132226  8.43826247  2.74501580
   7.05807744 17.56843068  6.12760848
 


--------------------------------------------------------------------------------------------------------


 k-point  1 :   0.0000 0.0000 0.0000  plane waves:   97677
 k-point  2 :   0.5000 0.0000-0.0000  plane waves:   97714
 k-point  3 :  -0.0000-0.0000 0.2500  plane waves:   97836
 k-point  4 :   0.5000 0.0000 0.2500  plane waves:   97856
 k-point  5 :  -0.0000-0.0000 0.5000  plane waves:   97964
 k-point  6 :   0.5000 0.0000 0.5000  plane waves:   97846

 maximum and minimum number of plane-waves per node :     24523    24296

 maximum number of plane-waves:     97964
 maximum index in each direction: 
   IXMAX=   35   IYMAX=   61   IZMAX=   10
   IXMIN=  -35   IYMIN=  -61   IZMIN=  -11


 real space projection operators:
  total allocation   :      13064.66 KBytes
  max/ min on nodes  :       3269.87       3261.89


 parallel 3D FFT for wavefunctions:
    minimum data exchange during FFTs selected (reduces bandwidth)
 parallel 3D FFT for charge:
    minimum data exchange during FFTs selected (reduces bandwidth)


 total amount of memory used by VASP MPI-rank0   128952. kBytes
=======================================================================

   base      :      30000. kBytes
   nonlr-proj:       7197. kBytes
   fftplans  :       7581. kBytes
   grid      :      20981. kBytes
   one-center:       1213. kBytes
   wavefun   :      61980. kBytes
 
     INWAV:  cpu time    0.0001: real time    0.0001
 Broyden mixing: mesh for mixing (old mesh)
   NGX = 71   NGY =123   NGZ = 21
  (NGX  =216   NGY  =384   NGZ  = 72)
  gives a total of 183393 points

 initial charge density was supplied:
 charge density of overlapping atoms calculated
 number of electron     600.0000000 magnetization      16.0000000
 keeping initial charge density in first step


--------------------------------------------------------------------------------------------------------


 Maximum index for non-local projection operator          644
 Maximum index for augmentation-charges          438 (set IRDMAX)


--------------------------------------------------------------------------------------------------------


 First call to EWALD:  gamma=   0.124
 Maximum number of real-space cells 2x 2x 6
 Maximum number of reciprocal cells 3x 5x 1

    FEWALD:  cpu time    0.0148: real time    0.0149


--------------------------------------- Iteration      1(   1)  ---------------------------------------


    POTLOK:  cpu time    0.3215: real time    0.4346
    SETDIJ:  cpu time    0.0649: real time    0.0657
     EDDAV:  cpu time   29.8017: real time   29.9743
       DOS:  cpu time    0.0141: real time    0.0149
    --------------------------------------------
      LOOP:  cpu time   30.2024: real time   30.4896

 eigenvalue-minimisations  :  9984
 total energy-change (2. order) : 0.4952767E+04  (-0.2824210E+05)
 number of electron     600.0000000 magnetization      16.0000000
 augmentation part      600.0000000 magnetization      16.0000000

 Free energy of the ion-electron system (eV)
  ---------------------------------------------------
  alpha Z        PSCENC =       604.64117687
  Ewald energy   TEWEN  =     28497.88914372
  -Hartree energ DENC   =    -52378.89410353
  -exchange      EXHF   =         0.00000000
  -V(xc)+E(xc)   XCENC  =      2064.96401185
  PAW double counting   =     21424.79691592   -21559.01982888
  entropy T*S    EENTRO =        -0.04140530
  eigenvalues    EBANDS =     -1517.17270779
  atomic energy  EATOM  =     27815.60422923
  Solvation  Ediel_sol  =         0.00000000
  ---------------------------------------------------
  free energy    TOTEN  =      4952.76743209 eV

  energy without entropy =     4952.80883739  energy(sigma->0) =     4952.78813474


--------------------------------------------------------------------------------------------------------




--------------------------------------- Iteration      1(   2)  ---------------------------------------


     EDDAV:  cpu time   38.4977: real time   38.5529
       DOS:  cpu time    0.0065: real time    0.0065
    --------------------------------------------
      LOOP:  cpu time   38.5042: real time   38.5593

 eigenvalue-minimisations  : 13312
 total energy-change (2. order) :-0.5487041E+04  (-0.5205404E+04)
 number of electron     600.0000000 magnetization      16.0000000
 augmentation part      600.0000000 magnetization      16.0000000

 Free energy of the ion-electron system (eV)
  ---------------------------------------------------
  alpha Z        PSCENC =       604.64117687
  Ewald energy   TEWEN  =     28497.88914372
  -Hartree energ DENC   =    -52378.89410353
  -exchange      EXHF   =         0.00000000
  -V(xc)+E(xc)   XCENC  =      2064.96401185
  PAW double counting   =     21424.79691592   -21559.01982888
  entropy T*S    EENTRO =        -0.01100942
  eigenvalues    EBANDS =     -7004.24369205
  atomic energy  EATOM  =     27815.60422923
  Solvation  Ediel_sol  =         0.00000000
  ---------------------------------------------------
  free energy    TOTEN  =      -534.27315630 eV

  energy without entropy =     -534.26214688  energy(sigma->0) =     -534.26765159


--------------------------------------------------------------------------------------------------------




--------------------------------------- Iteration      1(   3)  ---------------------------------------


     EDDAV:  cpu time   34.6108: real time   34.6512
       DOS:  cpu time    0.0072: real time    0.0072
    --------------------------------------------
      LOOP:  cpu time   34.6180: real time   34.6584

 eigenvalue-minimisations  : 12256
 total energy-change (2. order) :-0.7348942E+03  (-0.7256948E+03)
 number of electron     600.0000000 magnetization      16.0000000
 augmentation part      600.0000000 magnetization      16.0000000

 Free energy of the ion-electron system (eV)
  ---------------------------------------------------
  alpha Z        PSCENC =       604.64117687
  Ewald energy   TEWEN  =     28497.88914372
  -Hartree energ DENC   =    -52378.89410353
  -exchange      EXHF   =         0.00000000
  -V(xc)+E(xc)   XCENC  =      2064.96401185
  PAW double counting   =     21424.79691592   -21559.01982888
  entropy T*S    EENTRO =        -0.05576265
  eigenvalues    EBANDS =     -7739.09314263
  atomic energy  EATOM  =     27815.60422923
  Solvation  Ediel_sol  =         0.00000000
  ---------------------------------------------------
  free energy    TOTEN  =     -1269.16736010 eV

  energy without entropy =    -1269.11159746  energy(sigma->0) =    -1269.13947878


--------------------------------------------------------------------------------------------------------




--------------------------------------- Iteration      1(   4)  ---------------------------------------


     EDDAV:  cpu time   40.4829: real time   40.5268
       DOS:  cpu time    0.0065: real time    0.0065
    --------------------------------------------
      LOOP:  cpu time   40.4894: real time   40.5333

 eigenvalue-minimisations  : 14144
 total energy-change (2. order) :-0.2727464E+02  (-0.2709827E+02)
 number of electron     600.0000000 magnetization      16.0000000
 augmentation part      600.0000000 magnetization      16.0000000

 Free energy of the ion-electron system (eV)
  ---------------------------------------------------
  alpha Z        PSCENC =       604.64117687
  Ewald energy   TEWEN  =     28497.88914372
  -Hartree energ DENC   =    -52378.89410353
  -exchange      EXHF   =         0.00000000
  -V(xc)+E(xc)   XCENC  =      2064.96401185
  PAW double counting   =     21424.79691592   -21559.01982888
  entropy T*S    EENTRO =        -0.10578912
  eigenvalues    EBANDS =     -7766.31775754
  atomic energy  EATOM  =     27815.60422923
  Solvation  Ediel_sol  =         0.00000000
  ---------------------------------------------------
  free energy    TOTEN  =     -1296.44200149 eV

  energy without entropy =    -1296.33621236  energy(sigma->0) =    -1296.38910693


--------------------------------------------------------------------------------------------------------




--------------------------------------- Iteration      1(   5)  ---------------------------------------


     EDDAV:  cpu time   39.2253: real time   39.2700
       DOS:  cpu time    0.0074: real time    0.0074
    --------------------------------------------
      LOOP:  cpu time   39.2327: real time   39.2774

 eigenvalue-minimisations  : 13504
 total energy-change (2. order) :-0.6284884E+00  (-0.6272666E+00)
 number of electron     600.0000000 magnetization      16.0000000
 augmentation part      600.0000000 magnetization      16.0000000

 Free energy of the ion-electron system (eV)
  ---------------------------------------------------
  alpha Z        PSCENC =       604.64117687
  Ewald energy   TEWEN  =     28497.88914372
  -Hartree energ DENC   =    -52378.89410353
  -exchange      EXHF   =         0.00000000
  -V(xc)+E(xc)   XCENC  =      2064.96401185
  PAW double counting   =     21424.79691592   -21559.01982888
  entropy T*S    EENTRO =        -0.10690777
  eigenvalues    EBANDS =     -7766.94512729
  atomic energy  EATOM  =     27815.60422923
  Solvation  Ediel_sol  =         0.00000000
  ---------------------------------------------------
  free energy    TOTEN  =     -1297.07048988 eV

  energy without entropy =    -1296.96358211  energy(sigma->0) =    -1297.01703600


--------------------------------------------------------------------------------------------------------




--------------------------------------- Iteration      1(   6)  ---------------------------------------


     EDDAV:  cpu time   42.3425: real time   42.3908
       DOS:  cpu time    0.0069: real time    0.0069
    --------------------------------------------
      LOOP:  cpu time   42.3494: real time   42.3977

 eigenvalue-minimisations  : 15296
 total energy-change (2. order) :-0.3708135E-01  (-0.3707017E-01)
 number of electron     600.0000000 magnetization      16.0000000
 augmentation part      600.0000000 magnetization      16.0000000

 Free energy of the ion-electron system (eV)
  ---------------------------------------------------
  alpha Z        PSCENC =       604.64117687
  Ewald energy   TEWEN  =     28497.88914372
  -Hartree energ DENC   =    -52378.89410353
  -exchange      EXHF   =         0.00000000
  -V(xc)+E(xc)   XCENC  =      2064.96401185
  PAW double counting   =     21424.79691592   -21559.01982888
  entropy T*S    EENTRO =        -0.10697647
  eigenvalues    EBANDS =     -7766.98213994
  atomic energy  EATOM  =     27815.60422923
  Solvation  Ediel_sol  =         0.00000000
  ---------------------------------------------------
  free energy    TOTEN  =     -1297.10757124 eV

  energy without entropy =    -1297.00059477  energy(sigma->0) =    -1297.05408300


--------------------------------------------------------------------------------------------------------




--------------------------------------- Iteration      1(   7)  ---------------------------------------


     EDDAV:  cpu time   39.2150: real time   39.2606
       DOS:  cpu time    0.0061: real time    0.0062
    --------------------------------------------
      LOOP:  cpu time   39.2212: real time   39.2668

 eigenvalue-minimisations  : 13728
 total energy-change (2. order) :-0.7307735E-03  (-0.7304682E-03)
 number of electron     600.0000000 magnetization      16.0000000
 augmentation part      600.0000000 magnetization      16.0000000

 Free energy of the ion-electron system (eV)
  ---------------------------------------------------
  alpha Z        PSCENC =       604.64117687
  Ewald energy   TEWEN  =     28497.88914372
  -Hartree energ DENC   =    -52378.89410353
  -exchange      EXHF   =         0.00000000
  -V(xc)+E(xc)   XCENC  =      2064.96401185
  PAW double counting   =     21424.79691592   -21559.01982888
  entropy T*S    EENTRO =        -0.10698324
  eigenvalues    EBANDS =     -7766.98286394
  atomic energy  EATOM  =     27815.60422923
  Solvation  Ediel_sol  =         0.00000000
  ---------------------------------------------------
  free energy    TOTEN  =     -1297.10830201 eV

  energy without entropy =    -1297.00131877  energy(sigma->0) =    -1297.05481039


--------------------------------------------------------------------------------------------------------




--------------------------------------- Iteration      1(   8)  ---------------------------------------


     EDDAV:  cpu time   41.8516: real time   41.9003
       DOS:  cpu time    0.0072: real time    0.0072
    CHARGE:  cpu time    1.2391: real time    1.2436
    MIXING:  cpu time    0.0134: real time    0.0154
    --------------------------------------------
      LOOP:  cpu time   43.1112: real time   43.1665

 eigenvalue-minimisations  : 15232
 total energy-change (2. order) :-0.3062319E-04  (-0.3061125E-04)
 number of electron     600.0000034 magnetization      16.0427865
 augmentation part       33.7381701 magnetization       5.2550498

 Broyden mixing:
  rms(total) = 0.86664E+01    rms(broyden)= 0.86658E+01
  rms(prec ) = 0.92644E+01
  weight for this iteration     100.00

 Free energy of the ion-electron system (eV)
  ---------------------------------------------------
  alpha Z        PSCENC =       604.64117687
  Ewald energy   TEWEN  =     28497.88914372
  -Hartree energ DENC   =    -52378.89410353
  -exchange      EXHF   =         0.00000000
  -V(xc)+E(xc)   XCENC  =      2064.96401185
  PAW double counting   =     21424.79691592   -21559.01982888
  entropy T*S    EENTRO =        -0.10698394
  eigenvalues    EBANDS =     -7766.98289386
  atomic energy  EATOM  =     27815.60422923
  Solvation  Ediel_sol  =         0.00000000
  ---------------------------------------------------
  free energy    TOTEN  =     -1297.10833263 eV

  energy without entropy =    -1297.00134869  energy(sigma->0) =    -1297.05484066


--------------------------------------------------------------------------------------------------------




--------------------------------------- Iteration      1(   9)  ---------------------------------------


    POTLOK:  cpu time    0.2637: real time    0.2645
    SETDIJ:  cpu time    0.0619: real time    0.0619
     EDDAV:  cpu time   43.2669: real time   43.3115
       DOS:  cpu time    0.0070: real time    0.0070
[...]
     11.87874     14.48232      3.42521         0.000533      0.002746      0.002412
      9.75882      9.26794      5.60853         0.002053     -0.001428      0.000360
     16.91735     30.59384      5.31904         0.000401      0.000329      0.000786
     11.95286      9.93724      3.76668         0.003166      0.000859      0.001310
      7.95960     15.26562      4.30414         0.002368      0.000042      0.001670
      0.79399     24.52727      6.62645         0.000622     -0.000001     -0.000960
     14.63741     25.00464      2.05704        -0.000129      0.000340      0.000938
     16.14668     28.56128      2.90973        -0.002336      0.000957      0.002029
     16.85190     28.88391      4.04166        -0.002158      0.001573      0.001373
     16.10037     26.41733      6.28950        -0.001465      0.000606     -0.000525
     10.43151     13.46632      4.62407         0.000820      0.003971      0.001100
      9.78414     10.56435      1.43485         0.000510      0.000059      0.002050
      0.86566     25.82213      2.45336         0.001034      0.000561      0.001678
      9.72226     13.79625      5.75151         0.002801      0.000762     -0.002060
     10.48205     10.91455      2.56343         0.000106      0.001022     -0.000190
      7.93245     13.54495      3.03896        -0.001602      0.001221     -0.001890
      1.57081     26.15163      3.58346         0.001917      0.000177     -0.000318
      0.91858     29.05706      6.76906         0.000246     -0.001244     -0.002777
      7.99268     10.73406      4.15538        -0.001723      0.001328      0.002307
     16.79834     26.07183      5.15944        -0.000830      0.000271      0.002075
      1.61774     28.70842      5.64072         0.001127     -0.000111      0.002916
      7.28534     11.05643      5.28604        -0.000285      0.004203      0.000985
      7.23505     13.19910      1.90877        -0.001467     -0.003227     -0.002124
     14.87911      1.27283      1.48754        -0.000632     -0.000958      0.007674
     14.77920     23.12818      5.62505        -0.005255     -0.000395     -0.004718
     11.69118     16.77655      5.29884        -0.003773     -0.000144     -0.003786
     11.81959      7.63265      1.89691         0.003482      0.000341     -0.002441
      2.82951     22.83999      2.91523         0.000664      0.001241     -0.000719
      5.90935     16.48566      2.57737        -0.001521      0.000310      0.005123
      2.95397      1.39585      4.19035        -0.000329     -0.003915      0.000583
      6.03182      7.74727      4.59032        -0.002206      0.001837     -0.006445
     13.68794      0.58283      3.33297        -0.002570     -0.002629     -0.001203
     16.02179      2.36847      5.03883        -0.000267      0.001276     -0.001131
     15.92701     22.04948      2.07940         0.003280      0.001387      0.003272
     10.53797     17.43056      3.41374        -0.000044      0.000587      0.001314
     10.68540      6.96940      3.78989        -0.002361     -0.001744     -0.000700
      4.02283     23.94218      6.50299        -0.001021     -0.002647     -0.002947
     12.88492     15.67691      1.71412        -0.001054      0.000977      0.002371
     13.00015      8.74776      5.48180        -0.001709      0.000034     -0.002783
      4.72299     15.81061      4.43117         0.000508      0.001565      0.000898
      1.67545     22.18507      4.79931         0.001807      0.000844     -0.000889
      1.81646      2.06299      2.30042        -0.002195     -0.004353     -0.002853
      7.17978      6.65139      1.03819        -0.001597      0.001195     -0.000902
     13.59428     23.79959      3.76880        -0.000679      0.000782      0.003034
      4.14272      0.27731      0.60211        -0.003281      0.001499      0.002429
      4.84132      8.43826      2.74502        -0.000133      0.001305     -0.002641
      7.05808     17.56843      6.12761         0.003658     -0.000495     -0.002727
 -----------------------------------------------------------------------------------
    total drift:                               -0.045857      0.023565      0.000836


--------------------------------------------------------------------------------------------------------



  FREE ENERGIE OF THE ION-ELECTRON SYSTEM (eV)
  ---------------------------------------------------
  free  energy   TOTEN  =     -1186.16302705 eV

  energy  without entropy=    -1186.13987826  energy(sigma->0) =    -1186.15145265
 


--------------------------------------------------------------------------------------------------------


    POTLOK:  cpu time    0.3460: real time    0.3459


--------------------------------------------------------------------------------------------------------




--------------------------------------------------------------------------------------------------------


  
 reached required accuracy - stopping structural energy minimisation
 writing wavefunctions
     LOOP+:  cpu time 2017.9631: real time 2021.4872
    4ORBIT:  cpu time    0.0000: real time    0.0000
 


 total charge     
 
# of ion       s       p       d       tot
------------------------------------------
    1        0.870   1.769   0.000   2.639
    2        0.869   1.772   0.000   2.642
    3        0.870   1.769   0.000   2.639
    4        0.870   1.769   0.000   2.640
    5        0.869   1.772   0.000   2.642
    6        0.869   1.772   0.000   2.641
    7        0.869   1.772   0.000   2.641
    8        0.870   1.769   0.000   2.639
    9        0.869   1.772   0.000   2.642
   10        0.870   1.770   0.000   2.640
   11        0.869   1.772   0.000   2.642
   12        0.869   1.772   0.000   2.642
   13        0.869   1.772   0.000   2.642
   14        0.870   1.769   0.000   2.639
   15        0.870   1.770   0.000   2.640
   16        0.870   1.769   0.000   2.639
   17        0.864   1.718   0.000   2.581
   18        0.864   1.717   0.000   2.581
   19        0.864   1.717   0.000   2.581
   20        0.864   1.717   0.000   2.580
   21        0.864   1.717   0.000   2.581
   22        0.864   1.718   0.000   2.582
   23        0.864   1.718   0.000   2.582
   24        0.864   1.718   0.000   2.582
   25        0.864   1.718   0.000   2.581
   26        0.864   1.717   0.000   2.580
   27        0.864   1.717   0.000   2.581
   28        0.864   1.717   0.000   2.580
   29        0.864   1.718   0.000   2.581
   30        0.864   1.718   0.000   2.581
   31        0.864   1.718   0.000   2.582
   32        0.864   1.717   0.000   2.581
   33        0.866   1.786   0.000   2.652
   34        0.866   1.784   0.000   2.650
   35        0.866   1.784   0.000   2.650
   36        0.866   1.784   0.000   2.650
   37        0.866   1.784   0.000   2.650
   38        0.866   1.786   0.000   2.652
   39        0.866   1.786   0.000   2.652
   40        0.866   1.786   0.000   2.652
   41        0.866   1.786   0.000   2.651
   42        0.866   1.784   0.000   2.650
   43        0.866   1.785   0.000   2.650
   44        0.866   1.784   0.000   2.649
   45        0.866   1.786   0.000   2.651
   46        0.866   1.786   0.000   2.651
   47        0.866   1.786   0.000   2.652
   48        0.866   1.785   0.000   2.650
   49        0.870   1.767   0.000   2.637
   50        0.870   1.768   0.000   2.638
   51        0.870   1.768   0.000   2.638
   52        0.870   1.768   0.000   2.637
   53        0.870   1.768   0.000   2.638
   54        0.870   1.767   0.000   2.637
   55        0.870   1.767   0.000   2.637
   56        0.870   1.767   0.000   2.637
   57        0.870   1.767   0.000   2.637
   58        0.870   1.768   0.000   2.638
   59        0.870   1.768   0.000   2.638
   60        0.870   1.768   0.000   2.637
   61        0.870   1.767   0.000   2.637
   62        0.870   1.767   0.000   2.637
   63        0.870   1.767   0.000   2.637
   64        0.870   1.768   0.000   2.638
   65        0.848   1.790   0.000   2.639
   66        0.848   1.791   0.000   2.639
   67        0.848   1.791   0.000   2.639
   68        0.849   1.791   0.000   2.640
   69        0.848   1.791   0.000   2.639
   70        0.848   1.791   0.000   2.639
   71        0.848   1.791   0.000   2.639
   72        0.848   1.791   0.000   2.639
   73        0.865   1.791   0.000   2.656
   74        0.865   1.791   0.000   2.656
   75        0.865   1.791   0.000   2.656
   76        0.865   1.791   0.000   2.656
   77        0.865   1.791   0.000   2.656
   78        0.865   1.791   0.000   2.656
   79        0.865   1.791   0.000   2.656
   80        0.865   1.791   0.000   2.656
   81        0.391   0.495   6.043   6.928
   82        0.392   0.497   6.044   6.932
   83        0.392   0.497   6.044   6.934
   84        0.391   0.495   6.043   6.930
   85        0.638   0.048   0.000   0.686
   86        0.638   0.048   0.000   0.686
   87        0.638   0.048   0.000   0.686
   88        0.638   0.048   0.000   0.686
   89        0.638   0.048   0.000   0.686
   90        0.638   0.048   0.000   0.686
   91        0.638   0.048   0.000   0.686
   92        0.638   0.048   0.000   0.686
   93        0.638   0.048   0.000   0.686
   94        0.638   0.048   0.000   0.686
   95        0.638   0.048   0.000   0.686
   96        0.638   0.048   0.000   0.686
   97        0.638   0.048   0.000   0.686
   98        0.638   0.048   0.000   0.686
   99        0.638   0.048   0.000   0.686
  100        0.638   0.048   0.000   0.686
  101        0.633   0.050   0.000   0.682
  102        0.633   0.050   0.000   0.682
  103        0.628   0.050   0.000   0.679
  104        0.628   0.050   0.000   0.679
  105        0.633   0.050   0.000   0.682
  106        0.628   0.051   0.000   0.679
  107        0.628   0.051   0.000   0.679
  108        0.633   0.050   0.000   0.682
  109        0.628   0.050   0.000   0.679
  110        0.628   0.050   0.000   0.679
  111        0.633   0.050   0.000   0.682
  112        0.633   0.050   0.000   0.683
  113        0.628   0.050   0.000   0.679
  114        0.633   0.050   0.000   0.682
  115        0.633   0.050   0.000   0.682
  116        0.628   0.050   0.000   0.679
  117        1.241   2.607   0.000   3.848
  118        1.240   2.608   0.000   3.848
  119        1.241   2.606   0.000   3.848
  120        1.242   2.607   0.000   3.849
  121        1.240   2.607   0.000   3.847
  122        1.240   2.607   0.000   3.847
  123        1.240   2.608   0.000   3.848
  124        1.242   2.607   0.000   3.848
  125        1.240   2.608   0.000   3.848
  126        1.242   2.607   0.000   3.849
  127        1.240   2.607   0.000   3.847
  128        1.240   2.608   0.000   3.848
  129        1.240   2.607   0.000   3.847
  130        1.242   2.607   0.000   3.848
  131        1.241   2.607   0.000   3.849
  132        1.241   2.606   0.000   3.848
  133        1.211   2.731   0.000   3.942
  134        1.211   2.731   0.000   3.942
  135        1.211   2.731   0.000   3.943
  136        1.211   2.732   0.000   3.943
  137        1.211   2.731   0.000   3.943
  138        1.211   2.731   0.000   3.943
  139        1.211   2.731   0.000   3.943
  140        1.211   2.731   0.000   3.943
  141        1.584   3.542   0.000   5.126
  142        1.585   3.537   0.000   5.121
  143        1.585   3.537   0.000   5.121
  144        1.585   3.536   0.000   5.121
  145        1.585   3.537   0.000   5.121
  146        1.584   3.542   0.000   5.125
  147        1.584   3.542   0.000   5.125
  148        1.584   3.541   0.000   5.125
  149        1.584   3.541   0.000   5.125
  150        1.585   3.537   0.000   5.121
  151        1.585   3.537   0.000   5.121
  152        1.585   3.536   0.000   5.121
  153        1.584   3.541   0.000   5.125
  154        1.584   3.541   0.000   5.125
  155        1.584   3.542   0.000   5.126
  156        1.585   3.537   0.000   5.121
--------------------------------------------------
tot        145.967 265.047  24.175 435.189
 


 magnetization (x)
 
# of ion       s       p       d       tot
------------------------------------------
    1        0.003   0.019   0.000   0.022
    2        0.003   0.018   0.000   0.021
    3        0.003   0.019   0.000   0.022
    4        0.003   0.019   0.000   0.022
    5        0.003   0.018   0.000   0.021
    6        0.003   0.018   0.000   0.021
    7        0.003   0.018   0.000   0.021
    8        0.003   0.019   0.000   0.022
    9        0.003   0.018   0.000   0.021
   10        0.003   0.019   0.000   0.022
   11        0.003   0.018   0.000   0.021
   12        0.003   0.018   0.000   0.021
   13        0.003   0.018   0.000   0.021
   14        0.003   0.019   0.000   0.022
   15        0.003   0.019   0.000   0.022
   16        0.003   0.019   0.000   0.022
   17        0.000   0.001   0.000   0.002
   18        0.000   0.002   0.000   0.002
   19        0.000   0.002   0.000   0.002
   20        0.000   0.002   0.000   0.002
   21        0.000   0.002   0.000   0.002
   22        0.000   0.001   0.000   0.002
   23        0.000   0.001   0.000   0.002
   24        0.000   0.001   0.000   0.002
   25        0.000   0.001   0.000   0.002
   26        0.000   0.002   0.000   0.002
   27        0.000   0.002   0.000   0.002
   28        0.000   0.002   0.000   0.002
   29        0.000   0.001   0.000   0.002
   30        0.000   0.001   0.000   0.002
   31        0.000   0.001   0.000   0.002
   32        0.000   0.002   0.000   0.002
   33        0.000   0.002   0.000   0.002
   34        0.000   0.002   0.000   0.002
   35        0.000   0.002   0.000   0.002
   36        0.000   0.002   0.000   0.002
   37        0.000   0.002   0.000   0.002
   38        0.000   0.002   0.000   0.002
   39        0.000   0.002   0.000   0.002
   40        0.000   0.002   0.000   0.002
   41        0.000   0.002   0.000   0.002
   42        0.000   0.002   0.000   0.002
   43        0.000   0.002   0.000   0.002
   44        0.000   0.002   0.000   0.002
   45        0.000   0.002   0.000   0.002
   46        0.000   0.002   0.000   0.002
   47        0.000   0.002   0.000   0.002
   48        0.000   0.002   0.000   0.002
   49        0.000   0.001   0.000   0.001
   50        0.000   0.001   0.000   0.001
   51        0.000   0.001   0.000   0.001
   52        0.000   0.001   0.000   0.001
   53        0.000   0.001   0.000   0.001
   54        0.000   0.001   0.000   0.001
   55        0.000   0.001   0.000   0.001
   56        0.000   0.001   0.000   0.001
   57        0.000   0.001   0.000   0.001
   58        0.000   0.001   0.000   0.001
   59        0.000   0.001   0.000   0.001
   60        0.000   0.001   0.000   0.001
   61        0.000   0.001   0.000   0.001
   62        0.000   0.001   0.000   0.001
   63        0.000   0.001   0.000   0.001
   64        0.000   0.001   0.000   0.001
   65        0.002   0.016   0.000   0.018
   66        0.002   0.016   0.000   0.018
   67        0.002   0.016   0.000   0.018
   68        0.002   0.016   0.000   0.018
   69        0.002   0.016   0.000   0.018
   70        0.002   0.016   0.000   0.018
   71        0.002   0.016   0.000   0.018
   72        0.002   0.016   0.000   0.018
   73       -0.000  -0.000   0.000  -0.000
   74       -0.000  -0.000   0.000  -0.000
   75       -0.000  -0.000   0.000  -0.000
   76       -0.000  -0.000   0.000  -0.000
   77       -0.000  -0.000   0.000  -0.000
   78       -0.000  -0.000   0.000  -0.000
   79       -0.000  -0.000   0.000  -0.000
   80       -0.000  -0.000   0.000  -0.000
   81        0.016   0.056   3.425   3.497
   82        0.016   0.056   3.424   3.496
   83        0.016   0.056   3.424   3.496
   84        0.016   0.056   3.425   3.496
   85       -0.000   0.000   0.000  -0.000
   86       -0.000   0.000   0.000  -0.000
   87       -0.000   0.000   0.000  -0.000
   88       -0.000   0.000   0.000  -0.000
   89       -0.000   0.000   0.000  -0.000
   90       -0.000   0.000   0.000  -0.000
   91       -0.000   0.000   0.000  -0.000
   92       -0.000   0.000   0.000  -0.000
   93       -0.000   0.000   0.000  -0.000
   94       -0.000   0.000   0.000  -0.000
   95       -0.000   0.000   0.000  -0.000
   96       -0.000   0.000   0.000  -0.000
   97       -0.000   0.000   0.000  -0.000
   98       -0.000   0.000   0.000  -0.000
   99       -0.000   0.000   0.000  -0.000
  100       -0.000   0.000   0.000  -0.000
  101        0.000   0.000   0.000   0.000
  102        0.000   0.000   0.000   0.000
  103       -0.000   0.000   0.000   0.000
  104       -0.000   0.000   0.000   0.000
  105        0.000   0.000   0.000   0.000
  106       -0.000   0.000   0.000   0.000
  107       -0.000   0.000   0.000   0.000
  108        0.000   0.000   0.000   0.000
  109       -0.000   0.000   0.000   0.000
  110       -0.000   0.000   0.000   0.000
  111        0.000   0.000   0.000   0.000
  112        0.000   0.000   0.000   0.000
  113       -0.000   0.000   0.000   0.000
  114        0.000   0.000   0.000   0.000
  115        0.000   0.000   0.000   0.000
  116       -0.000   0.000   0.000   0.000
  117        0.012   0.039   0.000   0.051
  118        0.015   0.049   0.000   0.064
  119        0.012   0.039   0.000   0.051
  120        0.012   0.039   0.000   0.051
  121        0.015   0.050   0.000   0.065
  122        0.015   0.050   0.000   0.064
  123        0.015   0.050   0.000   0.064
  124        0.012   0.039   0.000   0.051
  125        0.015   0.049   0.000   0.064
  126        0.012   0.039   0.000   0.051
  127        0.015   0.050   0.000   0.065
  128        0.015   0.049   0.000   0.064
  129        0.015   0.050   0.000   0.064
  130        0.012   0.039   0.000   0.051
  131        0.012   0.039   0.000   0.051
  132        0.012   0.039   0.000   0.051
  133       -0.000  -0.000   0.000  -0.000
  134       -0.000  -0.000   0.000  -0.000
  135       -0.000  -0.000   0.000  -0.000
  136       -0.000  -0.000   0.000  -0.000
  137       -0.000  -0.000   0.000  -0.000
  138       -0.000  -0.000   0.000  -0.000
  139       -0.000  -0.000   0.000  -0.000
  140       -0.000  -0.000   0.000  -0.000
  141        0.000   0.003   0.000   0.003
  142        0.000   0.003   0.000   0.003
  143        0.000   0.003   0.000   0.003
  144        0.000   0.003   0.000   0.003
  145        0.000   0.003   0.000   0.003
  146        0.000   0.003   0.000   0.003
  147        0.000   0.003   0.000   0.003
  148        0.000   0.003   0.000   0.003
  149        0.000   0.003   0.000   0.003
  150        0.000   0.003   0.000   0.003
  151        0.000   0.003   0.000   0.003
  152        0.000   0.003   0.000   0.003
  153        0.000   0.003   0.000   0.003
  154        0.000   0.003   0.000   0.003
  155        0.000   0.003   0.000   0.003
  156        0.000   0.003   0.000   0.003
--------------------------------------------------
tot          0.339   1.480  13.698  15.517
 

 total amount of memory used by VASP MPI-rank0   128952. kBytes
=======================================================================

   base      :      30000. kBytes
   nonlr-proj:       7197. kBytes
   fftplans  :       7581. kBytes
   grid      :      20981. kBytes
   one-center:       1213. kBytes
   wavefun   :      61980. kBytes
 
  
  
 General timing and accounting informations for this job:
 ========================================================
  
                  Total CPU time used (sec):     2273.529
                            User time (sec):     2138.020
                          System time (sec):      135.509
                         Elapsed time (sec):     2285.858
  
                   Maximum memory used (kb):      983588.
                   Average memory used (kb):           0.
  
                          Minor page faults:        77818
                          Major page faults:           10
                 Voluntary context switches:        37640
