       N       E                     dE             d eps       ncg     rms          rms(c)
RMM:   1     0.552536362573E+04    0.55254E+04   -0.28386E+05  2800   0.145E+03
RMM:   2     0.181137911440E+04   -0.37140E+04   -0.66787E+04  2800   0.336E+02
RMM:   3    -0.145853113946E+03   -0.19572E+04   -0.21978E+04  2800   0.174E+02
RMM:   4    -0.861532135666E+03   -0.71568E+03   -0.67084E+03  2800   0.123E+02
RMM:   5    -0.110013997112E+04   -0.23861E+03   -0.20863E+03  2800   0.686E+01
RMM:   6    -0.117866698181E+04   -0.78527E+02   -0.68698E+02  2800   0.448E+01
RMM:   7    -0.120764297351E+04   -0.28976E+02   -0.25478E+02  2800   0.265E+01
RMM:   8    -0.121856538278E+04   -0.10922E+02   -0.95793E+01  2800   0.192E+01
RMM:   9    -0.122680428223E+04   -0.82389E+01   -0.77132E+01  7558   0.110E+01
RMM:  10    -0.122689106412E+04   -0.86782E-01   -0.19701E+00  7018   0.159E+00
RMM:  11    -0.122690166300E+04   -0.10599E-01   -0.12044E-01  7058   0.457E-01
RMM:  12    -0.122690243459E+04   -0.77159E-03   -0.11105E-02  6919   0.992E-02    0.579E+01
RMM:  13    -0.115815800260E+04    0.68744E+02   -0.14546E+02  5600   0.160E+01    0.323E+01
RMM:  14    -0.114481669637E+04    0.13341E+02   -0.41306E+01  5600   0.850E+00    0.147E+01
RMM:  15    -0.114398199776E+04    0.83470E+00   -0.86189E+00  5600   0.433E+00    0.491E+00
RMM:  16    -0.114385716573E+04    0.12483E+00   -0.66680E-01  5698   0.141E+00    0.128E+00
RMM:  17    -0.114386538206E+04   -0.82163E-02   -0.13618E-01  5668   0.633E-01    0.414E-01
RMM:  18    -0.114386532562E+04    0.56433E-04   -0.14533E-02  5660   0.214E-01    0.189E-01
RMM:  19    -0.114386669600E+04   -0.13704E-02   -0.41549E-03  5715   0.944E-02    0.833E-02
RMM:  20    -0.114386668214E+04    0.13863E-04   -0.14368E-03  5610   0.559E-02    0.554E-02
RMM:  21    -0.114386661569E+04    0.66450E-04   -0.30561E-04  5600   0.283E-02    0.125E-02
RMM:  22    -0.114386660592E+04    0.97695E-05   -0.55606E-05  5682   0.103E-02    0.952E-03
RMM:  23    -0.114386659790E+04    0.80177E-05   -0.11966E-05  5252   0.550E-03    0.219E-03
RMM:  24    -0.114386659740E+04    0.50801E-06   -0.18637E-06  3543   0.209E-03
   1 F= -.11607090E+04 E0= -.11607090E+04  d E =-.116071E+04
