 vasp.6.0.8 29Jun18 (build Mar 14 2019 11:44:20) complex                        
  
 executed on             LinuxIFC date 2021.01.08  13:28:38
 running   64 mpi-ranks, with    1 threads/rank
 distrk:  each k-point on   64 cores,    1 groups
 distr:  one band on NCORES_PER_BAND=   4 cores,   16 groups


--------------------------------------------------------------------------------------------------------


 INCAR:
 POTCAR:    PAW_PBE C 08Apr2002                   
 POTCAR:    PAW_PBE Zn 06Sep2000                  
 POTCAR:    PAW_PBE H 15Jun2001                   
 POTCAR:    PAW_PBE N 08Apr2002                   
 POTCAR:    PAW_PBE O 08Apr2002                   
 POTCAR:    PAW_PBE C 08Apr2002                   
   VRHFIN =C: s2p2                                                              
   LEXCH  = PE                                                                  
   EATOM  =   147.1560 eV,   10.8157 Ry                                         
                                                                                
   TITEL  = PAW_PBE C 08Apr2002                                                 
   LULTRA =        F    use ultrasoft PP ?                                      
   IUNSCR =        1    unscreen: 0-lin 1-nonlin 2-no                           
   RPACOR =    1.200    partial core radius                                     
   POMASS =   12.011; ZVAL   =    4.000    mass and valenz                      
   RCORE  =    1.500    outmost cutoff radius                                   
   RWIGS  =    1.630; RWIGS  =    0.863    wigner-seitz radius (au A)           
   ENMAX  =  400.000; ENMIN  =  300.000 eV                                      
   ICORE  =        2    local potential                                         
   LCOR   =        T    correct aug charges                                     
   LPAW   =        T    paw PP                                                  
   EAUG   =  644.873                                                            
   DEXC   =    0.000                                                            
   RMAX   =    1.529    core radius for proj-oper                               
   RAUG   =    1.300    factor for augmentation sphere                          
   RDEP   =    1.501    radius for radial grids                                 
   RDEPT  =    1.300    core radius for aug-charge                              
                                                                                
   Atomic configuration                                                         
    4 entries                                                                   
     n  l   j            E        occ.                                          
     1  0  0.50      -273.3789   2.0000                                         
     2  0  0.50       -13.7508   2.0000                                         
     2  1  0.50        -5.2854   2.0000                                         
     3  2  1.50        -5.4423   0.0000                                         
   Description                                                                  
     l       E           TYP  RCUT    TYP  RCUT                                 
     0    -13.7508458     23  1.200                                             
     0     -8.2022199     23  1.200                                             
     1     -5.2854383     23  1.500                                             
     1     34.0145650     23  1.500                                             
     2     -5.4423304      7  1.500                                             
  local pseudopotential read in
  partial core-charges read in
  partial kinetic energy density read in
  atomic valenz-charges read in
  non local Contribution for L=           0  read in
    real space projection operators read in
  non local Contribution for L=           0  read in
    real space projection operators read in
  non local Contribution for L=           1  read in
    real space projection operators read in
  non local Contribution for L=           1  read in
    real space projection operators read in
    PAW grid and wavefunctions read in
 
   number of l-projection  operators is LMAX  =           4
   number of lm-projection operators is LMMAX =           8
 
 POTCAR:    PAW_PBE Zn 06Sep2000                  
   VRHFIN =Zn: d10 p2                                                           
   LEXCH  = PE                                                                  
   EATOM  =  1748.8345 eV,  128.5357 Ry                                         
                                                                                
   TITEL  = PAW_PBE Zn 06Sep2000                                                
   LULTRA =        F    use ultrasoft PP ?                                      
   IUNSCR =        1    unscreen: 0-lin 1-nonlin 2-no                           
   RPACOR =    2.000    partial core radius                                     
   POMASS =   65.390; ZVAL   =   12.000    mass and valenz                      
   RCORE  =    2.300    outmost cutoff radius                                   
   RWIGS  =    2.400; RWIGS  =    1.270    wigner-seitz radius (au A)           
   ENMAX  =  276.723; ENMIN  =  207.542 eV                                      
   RCLOC  =    1.828    cutoff for local pot                                    
   LCOR   =        T    correct aug charges                                     
   LPAW   =        T    paw PP                                                  
   EAUG   =  575.892                                                            
   DEXC   =    0.000                                                            
   RMAX   =    2.347    core radius for proj-oper                               
   RAUG   =    1.300    factor for augmentation sphere                          
   RDEP   =    2.324    radius for radial grids                                 
   RDEPT  =    1.788    core radius for aug-charge                              
                                                                                
   Atomic configuration                                                         
    9 entries                                                                   
     n  l   j            E        occ.                                          
     1  0  0.50     -9524.6913   2.0000                                         
     2  0  0.50     -1158.1882   2.0000                                         
     2  1  1.50     -1003.8506   6.0000                                         
     3  0  0.50      -129.2194   2.0000                                         
     3  1  1.50       -83.3890   6.0000                                         
     3  2  2.50       -10.1410  10.0000                                         
     4  0  0.50        -5.9785   2.0000                                         
     4  1  0.50        -4.0817   0.0000                                         
     4  3  2.50        -1.3606   0.0000                                         
   Description                                                                  
     l       E           TYP  RCUT    TYP  RCUT                                 
     2    -10.1410010     23  2.300                                             
     2    -11.5015836     23  2.300                                             
     0     -5.9785163     23  2.300                                             
     0      1.1858015     23  2.300                                             
     1     -2.7211652     23  2.300                                             
     1     13.2444212     23  2.300                                             
  local pseudopotential read in
  partial core-charges read in
  partial kinetic energy density read in
  atomic valenz-charges read in
  non local Contribution for L=           2  read in
    real space projection operators read in
  non local Contribution for L=           2  read in
    real space projection operators read in
  non local Contribution for L=           0  read in
    real space projection operators read in
  non local Contribution for L=           0  read in
    real space projection operators read in
  non local Contribution for L=           1  read in
    real space projection operators read in
  non local Contribution for L=           1  read in
    real space projection operators read in
    PAW grid and wavefunctions read in
 
   number of l-projection  operators is LMAX  =           6
   number of lm-projection operators is LMMAX =          18
 
 POTCAR:    PAW_PBE H 15Jun2001                   
   VRHFIN =H: ultrasoft test                                                    
   LEXCH  = PE                                                                  
   EATOM  =    12.4884 eV,    0.9179 Ry                                         
                                                                                
   TITEL  = PAW_PBE H 15Jun2001                                                 
   LULTRA =        F    use ultrasoft PP ?                                      
   IUNSCR =        0    unscreen: 0-lin 1-nonlin 2-no                           
   RPACOR =    0.000    partial core radius                                     
   POMASS =    1.000; ZVAL   =    1.000    mass and valenz                      
   RCORE  =    1.100    outmost cutoff radius                                   
   RWIGS  =    0.700; RWIGS  =    0.370    wigner-seitz radius (au A)           
   ENMAX  =  250.000; ENMIN  =  200.000 eV                                      
   RCLOC  =    0.701    cutoff for local pot                                    
   LCOR   =        T    correct aug charges                                     
   LPAW   =        T    paw PP                                                  
   EAUG   =  400.000                                                            
   RMAX   =    1.123    core radius for proj-oper                               
   RAUG   =    1.200    factor for augmentation sphere                          
   RDEP   =    1.112    radius for radial grids                                 
   RDEPT  =    0.926    core radius for aug-charge                              
                                                                                
   Atomic configuration                                                         
    2 entries                                                                   
     n  l   j            E        occ.                                          
     1  0  0.50        -6.4927   1.0000                                         
     2  1  0.50        -3.4015   0.0000                                         
   Description                                                                  
     l       E           TYP  RCUT    TYP  RCUT                                 
     0     -6.4927494     23  1.100                                             
     0      6.8029130     23  1.100                                             
     1     -4.0817478     23  1.100                                             
  local pseudopotential read in
  atomic valenz-charges read in
  non local Contribution for L=           0  read in
    real space projection operators read in
  non local Contribution for L=           0  read in
    real space projection operators read in
  non local Contribution for L=           1  read in
    real space projection operators read in
    PAW grid and wavefunctions read in
 
   number of l-projection  operators is LMAX  =           3
   number of lm-projection operators is LMMAX =           5
 
 POTCAR:    PAW_PBE N 08Apr2002                   
   VRHFIN =N: s2p3                                                              
   LEXCH  = PE                                                                  
   EATOM  =   264.5486 eV,   19.4438 Ry                                         
                                                                                
   TITEL  = PAW_PBE N 08Apr2002                                                 
   LULTRA =        F    use ultrasoft PP ?                                      
   IUNSCR =        1    unscreen: 0-lin 1-nonlin 2-no                           
   RPACOR =    1.200    partial core radius                                     
   POMASS =   14.001; ZVAL   =    5.000    mass and valenz                      
   RCORE  =    1.500    outmost cutoff radius                                   
   RWIGS  =    1.400; RWIGS  =    0.741    wigner-seitz radius (au A)           
   ENMAX  =  400.000; ENMIN  =  300.000 eV                                      
   ICORE  =        2    local potential                                         
   LCOR   =        T    correct aug charges                                     
   LPAW   =        T    paw PP                                                  
   EAUG   =  627.112                                                            
   DEXC   =    0.000                                                            
   RMAX   =    1.529    core radius for proj-oper                               
   RAUG   =    1.300    factor for augmentation sphere                          
   RDEP   =    1.514    radius for radial grids                                 
   RDEPT  =    1.338    core radius for aug-charge                              
                                                                                
   Atomic configuration                                                         
    4 entries                                                                   
     n  l   j            E        occ.                                          
     1  0  0.50      -384.7179   2.0000                                         
     2  0  0.50       -18.5828   2.0000                                         
     2  1  0.50        -7.0898   3.0000                                         
     3  2  1.50        -6.8029   0.0000                                         
   Description                                                                  
     l       E           TYP  RCUT    TYP  RCUT                                 
     0    -18.5828119     23  1.200                                             
     0    -13.5018863     23  1.200                                             
     1     -7.0897853     23  1.500                                             
     1      9.5240782     23  1.500                                             
     2     -6.8029130      7  1.500                                             
  local pseudopotential read in
  partial core-charges read in
  partial kinetic energy density read in
  atomic valenz-charges read in
  non local Contribution for L=           0  read in
    real space projection operators read in
  non local Contribution for L=           0  read in
    real space projection operators read in
  non local Contribution for L=           1  read in
    real space projection operators read in
  non local Contribution for L=           1  read in
    real space projection operators read in
    PAW grid and wavefunctions read in
 
   number of l-projection  operators is LMAX  =           4
   number of lm-projection operators is LMMAX =           8
 
 POTCAR:    PAW_PBE O 08Apr2002                   
   VRHFIN =O: s2p4                                                              
   LEXCH  = PE                                                                  
   EATOM  =   432.3788 eV,   31.7789 Ry                                         
                                                                                
   TITEL  = PAW_PBE O 08Apr2002                                                 
   LULTRA =        F    use ultrasoft PP ?                                      
   IUNSCR =        1    unscreen: 0-lin 1-nonlin 2-no                           
   RPACOR =    1.200    partial core radius                                     
   POMASS =   16.000; ZVAL   =    6.000    mass and valenz                      
   RCORE  =    1.520    outmost cutoff radius                                   
   RWIGS  =    1.550; RWIGS  =    0.820    wigner-seitz radius (au A)           
   ENMAX  =  400.000; ENMIN  =  300.000 eV                                      
   ICORE  =        2    local potential                                         
   LCOR   =        T    correct aug charges                                     
   LPAW   =        T    paw PP                                                  
   EAUG   =  605.392                                                            
   DEXC   =    0.000                                                            
   RMAX   =    1.553    core radius for proj-oper                               
   RAUG   =    1.300    factor for augmentation sphere                          
   RDEP   =    1.550    radius for radial grids                                 
   RDEPT  =    1.329    core radius for aug-charge                              
                                                                                
   Atomic configuration                                                         
    4 entries                                                                   
     n  l   j            E        occ.                                          
     1  0  0.50      -514.6923   2.0000                                         
     2  0  0.50       -23.9615   2.0000                                         
     2  1  0.50        -9.0305   4.0000                                         
     3  2  1.50        -9.5241   0.0000                                         
   Description                                                                  
     l       E           TYP  RCUT    TYP  RCUT                                 
     0    -23.9615318     23  1.200                                             
     0     -9.5240782     23  1.200                                             
     1     -9.0304911     23  1.520                                             
     1      8.1634956     23  1.520                                             
     2     -9.5240782      7  1.500                                             
  local pseudopotential read in
  partial core-charges read in
  partial kinetic energy density read in
  kinetic energy density of atom read in
  atomic valenz-charges read in
  non local Contribution for L=           0  read in
    real space projection operators read in
  non local Contribution for L=           0  read in
    real space projection operators read in
  non local Contribution for L=           1  read in
    real space projection operators read in
  non local Contribution for L=           1  read in
    real space projection operators read in
    PAW grid and wavefunctions read in
 
   number of l-projection  operators is LMAX  =           4
   number of lm-projection operators is LMMAX =           8
 
 Optimization of the real space projectors (new method)

 maximal supplied QI-value         = 25.13
 optimisation between [QCUT,QGAM] = [ 12.32, 24.88] = [ 42.47,173.37] Ry 
 Optimized for a Real-space Cutoff    1.06 Angstroem

   l    n(q)    QCUT    max X(q) W(low)/X(q) W(high)/X(q)  e(spline) 
   0      8    12.315   115.676    0.34E-03    0.18E-03    0.23E-06
   0      8    12.315    87.132    0.34E-03    0.18E-03    0.22E-06
   1      7    12.315     4.429    0.45E-03    0.12E-03    0.18E-06
   1      7    12.315     2.733    0.35E-03    0.97E-04    0.15E-06
 Optimization of the real space projectors (new method)

 maximal supplied QI-value         = 16.25
 optimisation between [QCUT,QGAM] = [ 12.51, 25.03] = [ 43.85,175.40] Ry 
 Optimized for a Real-space Cutoff    1.31 Angstroem

   l    n(q)    QCUT    max X(q) W(low)/X(q) W(high)/X(q)  e(spline) 
   2      9    12.514    46.356    0.36E-03    0.54E-03    0.48E-06
   2      9    12.514    41.843    0.37E-03    0.56E-03    0.49E-06
   0     10    12.514    48.958    0.13E-03    0.28E-03    0.23E-06
   0     10    12.514    32.776    0.12E-03    0.26E-03    0.22E-06
   1      9    12.514    17.787    0.44E-03    0.44E-04    0.36E-06
   1      9    12.514    14.435    0.39E-03    0.39E-04    0.32E-06
 Optimization of the real space projectors (new method)

 maximal supplied QI-value         = 34.20
 optimisation between [QCUT,QGAM] = [ 12.31, 24.97] = [ 42.46,174.58] Ry 
 Optimized for a Real-space Cutoff    1.00 Angstroem

   l    n(q)    QCUT    max X(q) W(low)/X(q) W(high)/X(q)  e(spline) 
   0      7    12.313    19.460    0.14E-03    0.42E-03    0.16E-06
   0      7    12.313    12.209    0.12E-03    0.40E-03    0.16E-06
   1      7    12.313     4.655    0.33E-03    0.59E-03    0.89E-07
 Optimization of the real space projectors (new method)

 maximal supplied QI-value         = 25.13
 optimisation between [QCUT,QGAM] = [ 12.32, 24.88] = [ 42.47,173.37] Ry 
 Optimized for a Real-space Cutoff    1.20 Angstroem

   l    n(q)    QCUT    max X(q) W(low)/X(q) W(high)/X(q)  e(spline) 
   0      9    12.315    79.467    0.14E-03    0.22E-04    0.37E-06
   0      9    12.315    66.151    0.14E-03    0.23E-04    0.36E-06
   1      8    12.315    22.077    0.30E-03    0.54E-03    0.45E-06
   1      8    12.315    15.894    0.30E-03    0.55E-03    0.45E-06
 Optimization of the real space projectors (new method)

 maximal supplied QI-value         = 24.76
 optimisation between [QCUT,QGAM] = [ 12.38, 25.00] = [ 42.90,175.06] Ry 
 Optimized for a Real-space Cutoff    1.13 Angstroem

   l    n(q)    QCUT    max X(q) W(low)/X(q) W(high)/X(q)  e(spline) 
   0      8    12.378    20.381    0.16E-03    0.54E-05    0.27E-06
   0      8    12.378    15.268    0.17E-03    0.61E-05    0.29E-06
   1      8    12.378     5.964    0.38E-03    0.23E-03    0.28E-06
   1      8    12.378     5.382    0.33E-03    0.20E-03    0.25E-06
  PAW_PBE C 08Apr2002                   :
 energy of atom  1       EATOM= -147.1560
 kinetic energy error for atom=    0.0057 (will be added to EATOM!!)
  PAW_PBE Zn 06Sep2000                  :
 energy of atom  2       EATOM=-1748.8345
 kinetic energy error for atom=    0.0020 (will be added to EATOM!!)
  PAW_PBE H 15Jun2001                   :
 energy of atom  3       EATOM=  -12.4884
 kinetic energy error for atom=    0.0004 (will be added to EATOM!!)
  PAW_PBE N 08Apr2002                   :
 energy of atom  4       EATOM= -264.5486
 kinetic energy error for atom=    0.0103 (will be added to EATOM!!)
  PAW_PBE O 08Apr2002                   :
 energy of atom  5       EATOM= -432.3788
 kinetic energy error for atom=    0.0168 (will be added to EATOM!!)
 
 
 POSCAR: Zn_H
  positions in direct lattice
  velocities in cartesian coordinates
 exchange correlation table for  LEXCH =        8
   RHO(1)=    0.500       N(1)  =     2000
   RHO(2)=  100.500       N(2)  =     4000
 


--------------------------------------------------------------------------------------------------------


 ion  position               nearest neighbor table
   1  0.936  0.958  0.192- 107 1.08 117 1.33  65 1.39
   2  0.705  0.950  0.388- 112 1.08 118 1.36  65 1.40
   3  0.934  0.797  0.855- 116 1.08 119 1.33  66 1.39
   4  0.565  0.458  0.691- 110 1.08 120 1.33  67 1.39
   5  0.795  0.306  0.156- 111 1.08 121 1.36  68 1.40
   6  0.295  0.806  0.157- 115 1.08 122 1.36  69 1.40
   7  0.795  0.450  0.888- 101 1.08 123 1.36  67 1.40
   8  0.565  0.297  0.354- 113 1.08 124 1.33  68 1.39
   9  0.205  0.450  0.388- 114 1.08 125 1.36  70 1.40
  10  0.066  0.797  0.355- 104 1.08 126 1.33  69 1.39
  11  0.295  0.950  0.888- 105 1.08 127 1.36  71 1.40
  12  0.205  0.306  0.656- 102 1.08 128 1.36  72 1.40
  13  0.705  0.806  0.656- 108 1.08 129 1.36  66 1.40
  14  0.064  0.959  0.692- 109 1.08 130 1.33  71 1.39
  15  0.435  0.297  0.854- 106 1.08 131 1.33  72 1.39
  16  0.435  0.458  0.191- 103 1.08 132 1.33  70 1.39
  17  0.695  0.028  0.103- 141 1.23 133 1.41  33 1.48
  18  0.834  0.053  0.472- 142 1.23 133 1.40  34 1.47
  19  0.835  0.703  0.573- 143 1.23 134 1.40  35 1.47
  20  0.665  0.553  0.972- 144 1.23 135 1.40  36 1.47
  21  0.665  0.203  0.073- 145 1.23 136 1.40  37 1.47
  22  0.305  0.727  0.442- 146 1.23 137 1.41  38 1.48
  23  0.805  0.528  0.603- 147 1.23 135 1.41  39 1.48
  24  0.804  0.227  0.441- 148 1.23 136 1.41  40 1.48
  25  0.196  0.528  0.103- 149 1.23 138 1.41  41 1.48
  26  0.166  0.703  0.073- 150 1.23 137 1.40  42 1.47
  27  0.165  0.053  0.972- 151 1.23 139 1.40  43 1.47
  28  0.334  0.203  0.573- 152 1.23 140 1.40  44 1.47
  29  0.696  0.727  0.942- 153 1.23 134 1.41  45 1.48
  30  0.304  0.028  0.603- 154 1.23 139 1.41  46 1.48
  31  0.195  0.227  0.941- 155 1.23 140 1.41  47 1.48
  32  0.335  0.553  0.472- 156 1.23 138 1.40  48 1.47
  33  0.693  0.073  0.096-  49 1.38  73 1.41  17 1.48
  34  0.824  0.098  0.463-  50 1.38  73 1.41  18 1.47
  35  0.825  0.658  0.583-  51 1.38  74 1.41  19 1.47
  36  0.676  0.598  0.963-  52 1.38  75 1.41  20 1.47
  37  0.675  0.158  0.082-  53 1.38  76 1.41  21 1.47
  38  0.307  0.683  0.449-  54 1.38  77 1.41  22 1.48
  39  0.807  0.573  0.596-  55 1.38  75 1.41  23 1.48
  40  0.806  0.183  0.449-  56 1.38  76 1.41  24 1.48
  41  0.194  0.573  0.096-  57 1.38  78 1.41  25 1.48
  42  0.176  0.658  0.083-  58 1.38  77 1.41  26 1.47
  43  0.175  0.098  0.963-  59 1.38  79 1.41  27 1.47
  44  0.324  0.158  0.582-  60 1.38  80 1.41  28 1.47
  45  0.694  0.683  0.949-  61 1.38  74 1.41  29 1.48
  46  0.306  0.073  0.596-  62 1.38  79 1.41  30 1.48
  47  0.193  0.183  0.949-  63 1.38  80 1.41  31 1.48
  48  0.325  0.598  0.462-  64 1.38  78 1.41  32 1.47
  49  0.626  0.082  0.914-  88 1.08  33 1.38  53 1.40
  50  0.884  0.131  0.637-  99 1.08  34 1.38  56 1.40
  51  0.884  0.625  0.408-  93 1.08  35 1.38  55 1.40
  52  0.616  0.631  0.137-  90 1.08  36 1.38  61 1.40
  53  0.616  0.125  0.908-  98 1.08  37 1.38  49 1.40
  54  0.374  0.673  0.631-  96 1.08  38 1.38  64 1.40
  55  0.874  0.582  0.414-  86 1.08  39 1.38  51 1.40
  56  0.873  0.173  0.631-  87 1.08  40 1.38  50 1.40
  57  0.127  0.582  0.914-  95 1.08  41 1.38  58 1.40
  58  0.116  0.625  0.908-  91 1.08  42 1.38  57 1.40
  59  0.116  0.131  0.137-  92 1.08  43 1.38  63 1.40
  60  0.384  0.125  0.408-  85 1.08  44 1.38  62 1.40
  61  0.627  0.673  0.131-  89 1.08  45 1.38  52 1.40
  62  0.373  0.082  0.414- 100 1.08  46 1.38  60 1.40
  63  0.126  0.173  0.131-  94 1.08  47 1.38  59 1.40
  64  0.384  0.631  0.637-  97 1.08  48 1.38  54 1.40
  65  0.786  0.979  0.296-   1 1.39   2 1.40 133 1.42
  66  0.786  0.777  0.749-   3 1.39  13 1.40 134 1.42
  67  0.714  0.479  0.796-   4 1.39   7 1.40 135 1.42
  68  0.713  0.277  0.248-   8 1.39   5 1.40 136 1.42
  69  0.214  0.777  0.249-  10 1.39   6 1.40 137 1.42
  70  0.286  0.479  0.296-  16 1.39   9 1.40 138 1.42
  71  0.213  0.979  0.797-  14 1.39  11 1.40 139 1.42
  72  0.286  0.277  0.748-  15 1.39  12 1.40 140 1.42
  73  0.754  0.106  0.276-  34 1.41  33 1.41  76 1.42
  74  0.754  0.649  0.769-  35 1.41  45 1.41  75 1.42
  75  0.746  0.606  0.776-  36 1.41  39 1.41  74 1.42
  76  0.746  0.149  0.269-  37 1.41  40 1.41  73 1.42
  77  0.246  0.649  0.269-  42 1.41  38 1.41  78 1.42
  78  0.254  0.606  0.276-  48 1.41  41 1.41  77 1.42
  79  0.246  0.106  0.776-  43 1.41  46 1.41  80 1.42
  80  0.254  0.149  0.769-  44 1.41  47 1.41  79 1.42
  81  0.115  0.878  0.023- 122 1.98 127 1.98 117 2.02 119 2.02
  82  0.884  0.878  0.523- 129 1.98 118 1.98 130 2.02 126 2.02
  83  0.384  0.378  0.522- 128 1.98 125 1.98 120 2.02 124 2.02
  84  0.615  0.378  0.022- 121 1.98 123 1.98 132 2.02 131 2.02
  85  0.435  0.133  0.265-  60 1.08
  86  0.916  0.556  0.277-  55 1.08
  87  0.916  0.200  0.768-  56 1.08
  88  0.583  0.056  0.777-  49 1.08
  89  0.584  0.700  0.269-  61 1.08
  90  0.565  0.623  0.280-  52 1.08
  91  0.065  0.633  0.765-  58 1.08
  92  0.064  0.123  0.280-  59 1.08
  93  0.936  0.633  0.265-  51 1.08
  94  0.083  0.200  0.268-  63 1.08
  95  0.084  0.556  0.776-  57 1.08
  96  0.416  0.700  0.769-  54 1.08
  97  0.436  0.623  0.780-  64 1.08
  98  0.564  0.132  0.765-  53 1.08
  99  0.935  0.123  0.780-  50 1.08
 100  0.416  0.056  0.276-  62 1.08
 101  0.912  0.453  0.987-   7 1.08
 102  0.087  0.303  0.557-  12 1.08
 103  0.534  0.471  0.106-  16 1.08
 104  0.968  0.784  0.440-  10 1.08
 105  0.412  0.953  0.986-  11 1.08
 106  0.533  0.284  0.939-  15 1.08
 107  0.034  0.972  0.108-   1 1.08
 108  0.588  0.803  0.556-  13 1.08
 109  0.965  0.972  0.608-  14 1.08
 110  0.467  0.471  0.606-   4 1.08
 111  0.912  0.303  0.057-   5 1.08
 112  0.587  0.953  0.486-   2 1.08
 113  0.466  0.284  0.439-   8 1.08
 114  0.088  0.453  0.487-   9 1.08
 115  0.412  0.803  0.057-   6 1.08
 116  0.032  0.784  0.940-   3 1.08
 117  0.945  0.919  0.216-   1 1.33 118 1.38  81 2.02
 118  0.803  0.913  0.336-   2 1.36 117 1.38  82 1.98
 119  0.944  0.836  0.831-   3 1.33 129 1.38  81 2.02
 120  0.556  0.419  0.715-   4 1.33 123 1.38  83 2.02
 121  0.697  0.342  0.208-   5 1.36 124 1.38  84 1.98
 122  0.198  0.842  0.209-   6 1.36 126 1.38  81 1.98
 123  0.697  0.413  0.836-   7 1.36 120 1.38  84 1.98
 124  0.555  0.336  0.329-   8 1.33 121 1.38  83 2.02
 125  0.303  0.413  0.336-   9 1.36 132 1.38  83 1.98
 126  0.056  0.836  0.331-  10 1.33 122 1.38  82 2.02
 127  0.197  0.913  0.836-  11 1.36 130 1.38  81 1.98
 128  0.302  0.342  0.708-  12 1.36 131 1.38  83 1.98
 129  0.802  0.842  0.708-  13 1.36 119 1.38  82 1.98
 130  0.055  0.919  0.716-  14 1.33 127 1.38  82 2.02
 131  0.444  0.336  0.829-  15 1.33 128 1.38  84 2.02
 132  0.444  0.419  0.215-  16 1.33 125 1.38  84 2.02
 133  0.751  0.022  0.303-  18 1.40  17 1.41  65 1.42
 134  0.751  0.734  0.742-  19 1.40  29 1.41  66 1.42
 135  0.749  0.522  0.803-  20 1.40  23 1.41  67 1.42
 136  0.748  0.234  0.242-  21 1.40  24 1.41  68 1.42
 137  0.249  0.734  0.242-  26 1.40  22 1.41  69 1.42
 138  0.252  0.522  0.303-  32 1.40  25 1.41  70 1.42
 139  0.248  0.022  0.803-  27 1.40  30 1.41  71 1.42
 140  0.251  0.234  0.742-  28 1.40  31 1.41  72 1.42
 141  0.648  0.998  0.948-  17 1.23
 142  0.909  0.044  0.623-  18 1.23
 143  0.910  0.712  0.422-  19 1.23
 144  0.590  0.544  0.123-  20 1.23
 145  0.590  0.212  0.922-  21 1.23
 146  0.352  0.757  0.598-  22 1.23
 147  0.852  0.498  0.447-  23 1.23
 148  0.852  0.257  0.597-  24 1.23
 149  0.148  0.498  0.947-  25 1.23
 150  0.090  0.712  0.922-  26 1.23
 151  0.090  0.044  0.123-  27 1.23
 152  0.409  0.212  0.422-  28 1.23
 153  0.648  0.757  0.098-  29 1.23
 154  0.351  0.998  0.448-  30 1.23
 155  0.148  0.257  0.097-  31 1.23
 156  0.410  0.544  0.623-  32 1.23
 

IMPORTANT INFORMATION: All symmetrisations will be switched off!
NOSYMM: (Re-)initialisation of all symmetry stuff for point group C_1.


----------------------------------------------------------------------------------------

                                     Primitive cell                                     

  volume of cell :    1520.1691

  direct lattice vectors                    reciprocal lattice vectors
     7.660197199 -0.000711013 -0.000966192     0.130544939 -0.000010507 -0.000017039
     0.002000780 32.351245977 -4.621087148     0.000003550  0.031608373  0.004884191
     0.000740697 -0.969269698  6.272694044     0.000022723  0.023285854  0.163019310

  length of vectors
     7.660197293 32.679620051  6.347139109     0.130544941  0.031983505  0.164674002

  position of ions in fractional coordinates (direct lattice)
     0.935588044  0.958494063  0.191870487
     0.704891763  0.949550817  0.387663929
     0.934428954  0.797449765  0.855067091
     0.564880104  0.458398225  0.690659521
     0.794614647  0.306101777  0.156331883
     0.295080005  0.806178306  0.156568044
     0.794873833  0.449552240  0.887797899
     0.564624287  0.297344692  0.353778531
     0.205186488  0.449622225  0.387847565
     0.065690635  0.797464714  0.355037860
     0.294631765  0.949596657  0.887658865
     0.204623969  0.306179082  0.656490622
     0.705075935  0.806097040  0.656389349
     0.063851084  0.958501721  0.691923082
     0.434590518  0.297355904  0.853775222
     0.435266624  0.458402877  0.190675172
     0.695341675  0.028317122  0.103468740
     0.834436031  0.053235903  0.472108056
     0.834899955  0.702563183  0.573302882
     0.665415584  0.553187243  0.971940710
     0.664750924  0.202512808  0.072909360
     0.304666044  0.727453615  0.441878402
     0.804574913  0.528325254  0.603295784
     0.804000414  0.227408902  0.441419558
     0.195900404  0.528362343  0.103197316
     0.165557270  0.702613475  0.073258390
     0.164674968  0.053266556  0.972033883
     0.334266404  0.202559793  0.572868193
     0.695629864  0.727407577  0.941837527
     0.303814387  0.028358843  0.603423880
     0.195143309  0.227451677  0.941461652
     0.335025496  0.553226713  0.471857882
     0.693131426  0.073022547  0.096109836
     0.824172295  0.097554960  0.462546500
     0.824722224  0.658218125  0.582661800
     0.675673999  0.597519024  0.962531509
     0.675009362  0.158182349  0.082428007
     0.306666496  0.682739223  0.449095303
     0.806705423  0.573040224  0.596077039
     0.806011338  0.182710516  0.448859958
     0.193786098  0.573081982  0.095976379
     0.175714216  0.658266810  0.082622162
     0.174995961  0.097591094  0.962518942
     0.324099080  0.158230471  0.582412393
     0.693724887  0.682698467  0.949123327
     0.305962543  0.073064842  0.596054103
     0.193083929  0.182750207  0.948846556
     0.324741568  0.597559471  0.462480163
     0.626096700  0.082390232  0.913788254
     0.883550245  0.130868075  0.637119217
     0.884212424  0.624928269  0.408038952
     0.616274324  0.630814934  0.137177963
     0.615576137  0.124871930  0.907858328
     0.373614261  0.673344818  0.631373658
     0.873720718  0.582437844  0.413829350
     0.872971196  0.173348549  0.631211001
     0.126802331  0.582483602  0.913727896
     0.116266076  0.624977019  0.907973267
     0.115598289  0.130902444  0.137089922
     0.383540556  0.124922371  0.407846565
     0.626815459  0.673305695  0.131421571
     0.372970346  0.082437398  0.413736201
     0.126136427  0.173383947  0.131200887
     0.384152739  0.630854163  0.637120240
     0.786291947  0.978686352  0.296498522
     0.785934266  0.777094384  0.748909176
     0.713806914  0.478647046  0.796073345
     0.713463020  0.277051032  0.248286367
     0.214289609  0.777148533  0.248979046
     0.286433193  0.478693990  0.296115730
     0.213103610  0.978721172  0.796517650
     0.285653814  0.277101177  0.748374133
     0.753524446  0.106382872  0.276154861
     0.754147418  0.649356031  0.769001932
     0.746299070  0.606379984  0.776212195
     0.745610126  0.149348797  0.268819792
     0.246258200  0.649398984  0.268969720
     0.254126380  0.606422122  0.276158669
     0.245631661  0.106424446  0.776139059
     0.253513131  0.149391972  0.768808502
     0.115440836  0.877932268  0.022872520
     0.884298137  0.877909544  0.522794268
     0.384224171  0.377923396  0.522494676
     0.615354624  0.377869281  0.022302590
     0.435058147  0.132517837  0.265007183
     0.916432289  0.555975412  0.276517837
     0.915643705  0.199823578  0.768480514
     0.583395912  0.055917585  0.776536350
     0.584120475  0.699764706  0.268753283
     0.564765598  0.623213193  0.280008751
     0.064747339  0.632588511  0.765186594
     0.064112611  0.123317287  0.279969866
     0.935710799  0.632539582  0.265227240
     0.083484617  0.199855686  0.268499698
     0.084172780  0.556020271  0.776368170
     0.416305667  0.699805890  0.768707167
     0.435676946  0.623247422  0.779928227
     0.564090574  0.132465655  0.765001902
     0.935062589  0.123287276  0.779988742
     0.415631286  0.055964981  0.276436332
     0.912063753  0.452697068  0.987088695
     0.087450691  0.303019860  0.557141075
     0.533631068  0.471413832  0.105931980
     0.967693495  0.784470096  0.440349194
     0.412206972  0.952716896  0.986229300
     0.532870539  0.284316900  0.938503347
     0.034170445  0.971567391  0.107691500
     0.588251692  0.802855768  0.556365881
     0.965182648  0.971571153  0.607864476
     0.466595212  0.471440670  0.605944833
     0.911769240  0.302913962  0.056927249
     0.587336623  0.952653028  0.486265153
     0.466336680  0.284327664  0.438606244
     0.087980295  0.452799393  0.487124651
     0.411956414  0.802964287  0.056650690
     0.032448152  0.784476478  0.940444047
     0.944690985  0.919444550  0.215902784
     0.802565844  0.913333124  0.336196907
     0.943673475  0.836466613  0.830593230
     0.555646459  0.419357163  0.714796949
     0.697178427  0.342360593  0.208161718
     0.197659355  0.842441491  0.208648438
     0.697345411  0.413307986  0.835927674
     0.555464295  0.336376596  0.329482665
     0.302535269  0.413352679  0.335985913
     0.056313879  0.836483061  0.330606532
     0.197047794  0.913363295  0.836228431
     0.302217069  0.342414014  0.708276457
     0.802344961  0.842382612  0.708498488
     0.054884081  0.919450504  0.715941815
     0.443914080  0.336385390  0.829493220
     0.444289044  0.419361246  0.214839029
     0.751393851  0.021790205  0.303063594
     0.751465126  0.733964615  0.742231924
     0.748555821  0.521767335  0.802829563
     0.748091361  0.233937869  0.241776289
     0.248882221  0.734019218  0.242270264
     0.251816024  0.521813572  0.302777653
     0.247830937  0.021832755  0.803046040
     0.250946442  0.233984192  0.741772667
     0.647884970  0.998334222  0.947669191
     0.909403185  0.043847258  0.623481722
     0.910090034  0.712000197  0.422234464
     0.590387309  0.543765550  0.123178945
     0.589570293  0.211919367  0.921736127
     0.352090998  0.757414978  0.597798848
     0.852081298  0.498359501  0.447445292
     0.851537597  0.257389931  0.597178544
     0.148410059  0.498394058  0.947340079
     0.090455964  0.712044902  0.922112716
     0.089594832  0.043865888  0.123300038
     0.409391644  0.211961290  0.421645835
     0.648060623  0.757369831  0.097669919
     0.351310982  0.998377155  0.447636847
     0.147772085  0.257433467  0.097308764
     0.410087764  0.543797779  0.623049573

  ion indices of the primitive-cell ions
   primitive index   ion index
                 1           1
                 2           2
                 3           3
                 4           4
                 5           5
                 6           6
                 7           7
                 8           8
                 9           9
                10          10
                11          11
                12          12
                13          13
                14          14
                15          15
                16          16
                17          17
                18          18
                19          19
                20          20
                21          21
                22          22
                23          23
                24          24
                25          25
                26          26
                27          27
                28          28
                29          29
                30          30
                31          31
                32          32
                33          33
                34          34
                35          35
                36          36
                37          37
                38          38
                39          39
                40          40
                41          41
                42          42
                43          43
                44          44
                45          45
                46          46
                47          47
                48          48
                49          49
                50          50
                51          51
                52          52
                53          53
                54          54
                55          55
                56          56
                57          57
                58          58
                59          59
                60          60
                61          61
                62          62
                63          63
                64          64
                65          65
                66          66
                67          67
                68          68
                69          69
                70          70
                71          71
                72          72
                73          73
                74          74
                75          75
                76          76
                77          77
                78          78
                79          79
                80          80
                81          81
                82          82
                83          83
                84          84
                85          85
                86          86
                87          87
                88          88
                89          89
                90          90
                91          91
                92          92
                93          93
                94          94
                95          95
                96          96
                97          97
                98          98
                99          99
               100         100
               101         101
               102         102
               103         103
               104         104
               105         105
               106         106
               107         107
               108         108
               109         109
               110         110
               111         111
               112         112
               113         113
               114         114
               115         115
               116         116
               117         117
               118         118
               119         119
               120         120
               121         121
               122         122
               123         123
               124         124
               125         125
               126         126
               127         127
               128         128
               129         129
               130         130
               131         131
               132         132
               133         133
               134         134
               135         135
               136         136
               137         137
               138         138
               139         139
               140         140
               141         141
               142         142
               143         143
               144         144
               145         145
               146         146
               147         147
               148         148
               149         149
               150         150
               151         151
               152         152
               153         153
               154         154
               155         155
               156         156

----------------------------------------------------------------------------------------

 
 

Automatic generation of k-mesh.
 generate k-points for:    3    1    4
Space group operators:
 irot       det(A)        alpha          n_x          n_y          n_z        tau_x        tau_y        tau_z
    1     1.000000     0.000000     1.000000     0.000000     0.000000     0.000000     0.000000     0.000000
 
 Subroutine IBZKPT returns following result:
 ===========================================
 
 Found      7 irreducible k-points:
 
 Following reciprocal coordinates:
            Coordinates               Weight
  0.000000  0.000000  0.000000      1.000000
  0.333333  0.000000  0.000000      2.000000
  0.000000 -0.000000  0.250000      2.000000
  0.333333  0.000000  0.250000      2.000000
  0.333333  0.000000 -0.250000      2.000000
  0.000000 -0.000000  0.500000      1.000000
  0.333333 -0.000000  0.500000      2.000000
 
 Following cartesian coordinates:
            Coordinates               Weight
  0.000000  0.000000  0.000000      1.000000
  0.043515 -0.000004 -0.000006      2.000000
  0.000006  0.005821  0.040755      2.000000
  0.043521  0.005818  0.040749      2.000000
  0.043509 -0.005825 -0.040761      2.000000
  0.000011  0.011643  0.081510      1.000000
  0.043526  0.011639  0.081504      2.000000
 


--------------------------------------------------------------------------------------------------------




 Dimension of arrays:
   k-points           NKPTS =      7   k-points in BZ     NKDIM =      7   number of bands    NBANDS=    400
   number of dos      NEDOS =    301   number of ions     NIONS =    156
   non local maximal  LDIM  =      6   non local SUM 2l+1 LMDIM =     18
   total plane-waves  NPLWV = 376320
   max r-space proj   IRMAX =   2363   max aug-charges    IRDMAX=   7577
   dimension x,y,z NGX =    48 NGY =  196 NGZ =   40
   dimension x,y,z NGXF=    96 NGYF=  392 NGZF=   80
   support grid    NGXF=    96 NGYF=  392 NGZF=   80
   ions per type =              80   4  32  24  16
   NGX,Y,Z   is equivalent  to a cutoff of  10.42,  9.97, 10.48 a.u.
   NGXF,Y,Z  is equivalent  to a cutoff of  20.83, 19.94, 20.95 a.u.

 SYSTEM =  flex_MOF                                
 POSCAR =  Zn_H                                    

 Startparameter for this run:
   NWRITE =      2    write-flag & timer
   PREC   = normal    normal or accurate (medium, high low for compatibility)
   ISTART =      0    job   : 0-new  1-cont  2-samecut
   ICHARG =      2    charge: 1-file 2-atom 10-const
   ISPIN  =      1    spin polarized calculation?
   LNONCOLLINEAR =      F non collinear calculations
   LSORBIT =      F    spin-orbit coupling
   INIWAV =      1    electr: 0-lowe 1-rand  2-diag
   LASPH  =      F    aspherical Exc in radial PAW
   METAGGA=      F    non-selfconsistent MetaGGA calc.

 Electronic Relaxation 1
   ENCUT  =  600.0 eV  44.10 Ry    6.64 a.u.  15.30 65.27 12.68*2*pi/ulx,y,z
   ENINI  =  600.0     initial cutoff
   ENAUG  =  644.9 eV  augmentation charge cutoff
   NELM   =     80;   NELMIN=  4; NELMDL=-12     # of ELM steps 
   EDIFF  = 0.1E-05   stopping-criterion for ELM
   LREAL  =      T    real-space projection
   NLSPLINE    = F    spline interpolate recip. space projectors
   LCOMPAT=      F    compatible to vasp.4.4
   GGA_COMPAT  = T    GGA compatible to vasp.4.4-vasp.4.6
   LMAXPAW     = -100 max onsite density
   LMAXMIX     =    2 max onsite mixed and CHGCAR
   VOSKOWN=      0    Vosko Wilk Nusair interpolation
   ROPT   =   -0.00050  -0.00050  -0.00050  -0.00050
   ROPT   =   -0.00050
 Ionic relaxation
   EDIFFG = -.1E-01   stopping-criterion for IOM
   NSW    =   1000    number of steps for IOM
   NBLOCK =      1;   KBLOCK =   1000    inner block; outer block 
   IBRION =      2    ionic relax: 0-MD 1-quasi-New 2-CG
   NFREE  =      1    steps in history (QN), initial steepest desc. (CG)
   ISIF   =      4    stress and relaxation
   IWAVPR =     11    prediction:  0-non 1-charg 2-wave 3-comb
   ISYM   =      0    0-nonsym 1-usesym 2-fastsym
   LCORR  =      T    Harris-Foulkes like correction to forces

   POTIM  = 0.5000    time-step for ionic-motion
   TEIN   =    0.0    initial temperature
   TEBEG  =    0.0;   TEEND  =   0.0 temperature during run
   SMASS  =  -3.00    Nose mass-parameter (am)
   estimated Nose-frequenzy (Omega)   =  0.10E-29 period in steps = 0.13E+47 mass=  -0.134E-26a.u.
   SCALEE = 1.0000    scale energy and forces
   NPACO  =    256;   APACO  = 16.0  distance and # of slots for P.C.
   PSTRESS=    0.0 pullay stress

  Mass of Ions in am
   POMASS =  12.01 65.39  1.00 14.00 16.00
  Ionic Valenz
   ZVAL   =   4.00 12.00  1.00  5.00  6.00
  Atomic Wigner-Seitz radii
   RWIGS  =  -1.00 -1.00 -1.00 -1.00 -1.00
  virtual crystal weights 
   VCA    =   1.00  1.00  1.00  1.00  1.00
   NELECT =     616.0000    total number of electrons
   NUPDOWN=      -1.0000    fix difference up-down

 DOS related values:
   EMIN   =  10.00;   EMAX   =-10.00  energy-range for DOS
   EFERMI =   0.00
   ISMEAR =     0;   SIGMA  =   0.05  broadening in eV -4-tet -1-fermi 0-gaus

 Electronic relaxation 2 (details)
   IALGO  =     48    algorithm
   LDIAG  =      T    sub-space diagonalisation (order eigenvalues)
   LSUBROT=      F    optimize rotation matrix (better conditioning)
   TURBO    =      0    0=normal 1=particle mesh
   IRESTART =      0    0=no restart 2=restart with 2 vectors
   NREBOOT  =      0    no. of reboots
   NMIN     =      0    reboot dimension
   EREF     =   0.00    reference energy to select bands
   IMIX   =      4    mixing-type and parameters
     AMIX     =   0.40;   BMIX     =  1.00
     AMIX_MAG =   1.60;   BMIX_MAG =  1.00
     AMIN     =   0.10
     WC   =   100.;   INIMIX=   1;  MIXPRE=   1;  MAXMIX= -45

 Intra band minimization:
   WEIMIN = 0.0010     energy-eigenvalue tresh-hold
   EBREAK =  0.63E-09  absolut break condition
   DEPER  =   0.30     relativ break condition  

   TIME   =   0.40     timestep for ELM

  volume/ion in A,a.u.               =       9.74        65.76
  Fermi-wavevector in a.u.,A,eV,Ry     =   1.211447  2.289303 19.967963  1.467604
  Thomas-Fermi vector in A             =   2.346962
 
 Write flags
   LWAVE        =      T    write WAVECAR
   LDOWNSAMPLE  =      F    k-point downsampling of WAVECAR
   LCHARG       =      T    write CHGCAR
   LVTOT        =      F    write LOCPOT, total local potential
   LVHAR        =      F    write LOCPOT, Hartree potential only
   LELF         =      F    write electronic localiz. function (ELF)
   LORBIT       =      0    0 simple, 1 ext, 2 COOP (PROOUT), +10 PAW based schemes


 Dipole corrections
   LMONO  =      F    monopole corrections only (constant potential shift)
   LDIPOL =      F    correct potential (dipole corrections)
   IDIPOL =      0    1-x, 2-y, 3-z, 4-all directions 
   EPSILON=  1.0000000 bulk dielectric constant

 Exchange correlation treatment:
   GGA     =    PE    GGA type
   LEXCH   =     8    internal setting for exchange type
   VOSKOWN=      0    Vosko Wilk Nusair interpolation
   LHFCALC =     F    Hartree Fock is set to
   LHFONE  =     F    Hartree Fock one center treatment
   AEXX    =    0.0000 exact exchange contribution

 Linear response parameters
   LEPSILON=     F    determine dielectric tensor
   LRPA    =     F    only Hartree local field effects (RPA)
   LNABLA  =     F    use nabla operator in PAW spheres
   LVEL    =     F    velocity operator in full k-point grid
   LINTERFAST=   F  fast interpolation
   KINTER  =     0    interpolate to denser k-point grid
   CSHIFT  =0.1000    complex shift for real part using Kramers Kronig
   OMEGAMAX=  -1.0    maximum frequency
   DEG_THRESHOLD= 0.2000000E-02 threshold for treating states as degnerate
   RTIME   =   -0.100 relaxation time in fs
  (WPLASMAI=    0.000 imaginary part of plasma frequency in eV, 0.658/RTIME)
   DFIELD  = 0.0000000 0.0000000 0.0000000 field for delta impulse in time
 
 Orbital magnetization related:
   ORBITALMAG=     F  switch on orbital magnetization
   LCHIMAG   =     F  perturbation theory with respect to B field
   DQ        =  0.001000  dq finite difference perturbation B field
   LLRAUG    =     F  two centre corrections for induced B field



--------------------------------------------------------------------------------------------------------


 conjugate gradient relaxation of ions
 charge density and potential will be updated during run
 non-spin polarized calculation
 RMM-DIIS sequential band-by-band
 perform sub-space diagonalisation
    before iterative eigenvector-optimisation
 modified Broyden-mixing scheme, WC =      100.0
 initial mixing is a Kerker type mixing with AMIX =  0.4000 and BMIX =      1.0000
 Hartree-type preconditioning will be used
 using additional bands           92
 real space projection scheme for non local part
 use partial core corrections
 calculate Harris-corrections to forces 
   (improved forces if not selfconsistent)
 use gradient corrections 
 use of overlap-Matrix (Vanderbilt PP)
 Gauss-broadening in eV      SIGMA  =   0.05


--------------------------------------------------------------------------------------------------------


  energy-cutoff  :      600.00
  volume of cell :     1520.17
      direct lattice vectors                 reciprocal lattice vectors
     7.660197199 -0.000711013 -0.000966192     0.130544939 -0.000010507 -0.000017039
     0.002000780 32.351245977 -4.621087148     0.000003550  0.031608373  0.004884191
     0.000740697 -0.969269698  6.272694044     0.000022723  0.023285854  0.163019310

  length of vectors
     7.660197293 32.679620051  6.347139109     0.130544941  0.031983505  0.164674002


 
 k-points in units of 2pi/SCALE and weight: read from INCAR                         
   0.00000000  0.00000000  0.00000000       0.083
   0.04351498 -0.00000350 -0.00000568       0.167
   0.00000568  0.00582146  0.04075483       0.167
   0.04352066  0.00581796  0.04074915       0.167
   0.04350930 -0.00582497 -0.04076051       0.167
   0.00001136  0.01164293  0.08150966       0.083
   0.04352634  0.01163942  0.08150398       0.167
 
 k-points in reciprocal lattice and weights: read from INCAR                         
   0.00000000  0.00000000  0.00000000       0.083
   0.33333333  0.00000000  0.00000000       0.167
   0.00000000 -0.00000000  0.25000000       0.167
   0.33333333  0.00000000  0.25000000       0.167
   0.33333333  0.00000000 -0.25000000       0.167
   0.00000000 -0.00000000  0.50000000       0.083
   0.33333333 -0.00000000  0.50000000       0.167
 
 position of ions in fractional coordinates (direct lattice) 
   0.93558804  0.95849406  0.19187049
   0.70489176  0.94955082  0.38766393
   0.93442895  0.79744977  0.85506709
   0.56488010  0.45839822  0.69065952
   0.79461465  0.30610178  0.15633188
   0.29508001  0.80617831  0.15656804
   0.79487383  0.44955224  0.88779790
   0.56462429  0.29734469  0.35377853
   0.20518649  0.44962222  0.38784757
   0.06569064  0.79746471  0.35503786
   0.29463177  0.94959666  0.88765887
   0.20462397  0.30617908  0.65649062
   0.70507593  0.80609704  0.65638935
   0.06385108  0.95850172  0.69192308
   0.43459052  0.29735590  0.85377522
   0.43526662  0.45840288  0.19067517
   0.69534167  0.02831712  0.10346874
   0.83443603  0.05323590  0.47210806
   0.83489996  0.70256318  0.57330288
   0.66541558  0.55318724  0.97194071
   0.66475092  0.20251281  0.07290936
   0.30466604  0.72745362  0.44187840
   0.80457491  0.52832525  0.60329578
   0.80400041  0.22740890  0.44141956
   0.19590040  0.52836234  0.10319732
   0.16555727  0.70261348  0.07325839
   0.16467497  0.05326656  0.97203388
   0.33426640  0.20255979  0.57286819
   0.69562986  0.72740758  0.94183753
   0.30381439  0.02835884  0.60342388
   0.19514331  0.22745168  0.94146165
   0.33502550  0.55322671  0.47185788
   0.69313143  0.07302255  0.09610984
   0.82417230  0.09755496  0.46254650
   0.82472222  0.65821813  0.58266180
   0.67567400  0.59751902  0.96253151
   0.67500936  0.15818235  0.08242801
   0.30666650  0.68273922  0.44909530
   0.80670542  0.57304022  0.59607704
   0.80601134  0.18271052  0.44885996
   0.19378610  0.57308198  0.09597638
   0.17571422  0.65826681  0.08262216
   0.17499596  0.09759109  0.96251894
   0.32409908  0.15823047  0.58241239
   0.69372489  0.68269847  0.94912333
   0.30596254  0.07306484  0.59605410
   0.19308393  0.18275021  0.94884656
   0.32474157  0.59755947  0.46248016
   0.62609670  0.08239023  0.91378825
   0.88355024  0.13086808  0.63711922
   0.88421242  0.62492827  0.40803895
   0.61627432  0.63081493  0.13717796
   0.61557614  0.12487193  0.90785833
   0.37361426  0.67334482  0.63137366
   0.87372072  0.58243784  0.41382935
   0.87297120  0.17334855  0.63121100
   0.12680233  0.58248360  0.91372790
   0.11626608  0.62497702  0.90797327
   0.11559829  0.13090244  0.13708992
   0.38354056  0.12492237  0.40784656
   0.62681546  0.67330569  0.13142157
   0.37297035  0.08243740  0.41373620
   0.12613643  0.17338395  0.13120089
   0.38415274  0.63085416  0.63712024
   0.78629195  0.97868635  0.29649852
   0.78593427  0.77709438  0.74890918
   0.71380691  0.47864705  0.79607335
   0.71346302  0.27705103  0.24828637
   0.21428961  0.77714853  0.24897905
   0.28643319  0.47869399  0.29611573
   0.21310361  0.97872117  0.79651765
   0.28565381  0.27710118  0.74837413
   0.75352445  0.10638287  0.27615486
   0.75414742  0.64935603  0.76900193
   0.74629907  0.60637998  0.77621220
   0.74561013  0.14934880  0.26881979
   0.24625820  0.64939898  0.26896972
   0.25412638  0.60642212  0.27615867
   0.24563166  0.10642445  0.77613906
   0.25351313  0.14939197  0.76880850
   0.11544084  0.87793227  0.02287252
   0.88429814  0.87790954  0.52279427
   0.38422417  0.37792340  0.52249468
   0.61535462  0.37786928  0.02230259
   0.43505815  0.13251784  0.26500718
   0.91643229  0.55597541  0.27651784
   0.91564371  0.19982358  0.76848051
   0.58339591  0.05591758  0.77653635
   0.58412048  0.69976471  0.26875328
   0.56476560  0.62321319  0.28000875
   0.06474734  0.63258851  0.76518659
   0.06411261  0.12331729  0.27996987
   0.93571080  0.63253958  0.26522724
   0.08348462  0.19985569  0.26849970
   0.08417278  0.55602027  0.77636817
   0.41630567  0.69980589  0.76870717
   0.43567695  0.62324742  0.77992823
   0.56409057  0.13246565  0.76500190
   0.93506259  0.12328728  0.77998874
   0.41563129  0.05596498  0.27643633
   0.91206375  0.45269707  0.98708869
   0.08745069  0.30301986  0.55714107
   0.53363107  0.47141383  0.10593198
   0.96769350  0.78447010  0.44034919
   0.41220697  0.95271690  0.98622930
   0.53287054  0.28431690  0.93850335
   0.03417045  0.97156739  0.10769150
   0.58825169  0.80285577  0.55636588
   0.96518265  0.97157115  0.60786448
   0.46659521  0.47144067  0.60594483
   0.91176924  0.30291396  0.05692725
   0.58733662  0.95265303  0.48626515
   0.46633668  0.28432766  0.43860624
   0.08798029  0.45279939  0.48712465
   0.41195641  0.80296429  0.05665069
   0.03244815  0.78447648  0.94044405
   0.94469099  0.91944455  0.21590278
   0.80256584  0.91333312  0.33619691
   0.94367347  0.83646661  0.83059323
   0.55564646  0.41935716  0.71479695
   0.69717843  0.34236059  0.20816172
   0.19765936  0.84244149  0.20864844
   0.69734541  0.41330799  0.83592767
   0.55546429  0.33637660  0.32948267
   0.30253527  0.41335268  0.33598591
   0.05631388  0.83648306  0.33060653
   0.19704779  0.91336330  0.83622843
   0.30221707  0.34241401  0.70827646
   0.80234496  0.84238261  0.70849849
   0.05488408  0.91945050  0.71594181
   0.44391408  0.33638539  0.82949322
   0.44428904  0.41936125  0.21483903
   0.75139385  0.02179020  0.30306359
   0.75146513  0.73396461  0.74223192
   0.74855582  0.52176734  0.80282956
   0.74809136  0.23393787  0.24177629
   0.24888222  0.73401922  0.24227026
   0.25181602  0.52181357  0.30277765
   0.24783094  0.02183275  0.80304604
   0.25094644  0.23398419  0.74177267
   0.64788497  0.99833422  0.94766919
   0.90940318  0.04384726  0.62348172
   0.91009003  0.71200020  0.42223446
   0.59038731  0.54376555  0.12317894
   0.58957029  0.21191937  0.92173613
   0.35209100  0.75741498  0.59779885
   0.85208130  0.49835950  0.44744529
   0.85153760  0.25738993  0.59717854
   0.14841006  0.49839406  0.94734008
   0.09045596  0.71204490  0.92211272
   0.08959483  0.04386589  0.12330004
   0.40939164  0.21196129  0.42164583
   0.64806062  0.75736983  0.09766992
   0.35131098  0.99837715  0.44763685
   0.14777209  0.25743347  0.09730876
   0.41008776  0.54379778  0.62304957
 
 position of ions in cartesian coordinates  (Angst):
   7.16884877 30.82183773 -3.22664370
   5.40179689 30.34289997 -1.95694092
   7.16013893 24.96903850  1.67758655
   4.32852172 14.15991674  2.21345194
   6.08763313  9.75068116 -0.43466867
   2.26209998 25.92890620 -2.74360188
   6.09044736 13.68249434  3.49069651
   4.32599034  9.27616301  0.84454321
   1.57295583 14.16976440  0.35490738
   0.50506175 25.45480296 -1.45817354
   2.25949484 29.86004469  1.17955890
   1.56855881  9.26881284  2.70288689
   5.40311971 25.44152399  0.39160365
   0.49154215 30.33801946 -0.08915988
   3.33027640  8.79198655  3.98094331
   3.33528657 14.64477907 -0.92269318
   5.32658764  0.81531067  0.51750003
   6.39240075  1.26405447  2.71457542
   6.39732862 22.17251560  0.34874120
   5.09904131 16.95375076  3.53971733
   5.09258235  6.48040018 -0.47913350
   2.33558475 23.10551487 -0.59015290
   6.16470641 16.50665186  1.34207546
   6.15958367  6.92853507  1.71723666
   1.50176930 16.99301481 -1.79447252
   1.26966137 22.65929651 -2.78747059
   1.26226929  0.78095939  5.85096264
   2.56137617  5.99756025  2.65705748
   5.33081494 22.61915228  2.54577272
   2.32778181  0.33234742  3.65375115
   1.49598864  6.44567616  4.85423833
   2.56781775 17.43997771  0.40298758
   5.30974070  2.26872119  0.26475435
   6.31386010  2.70710620  2.44980640
   6.31928340 20.72883367  0.61237904
   5.17770453 18.39705188  3.27582535
   5.17108237  5.03702116 -0.21458094
   2.35082449 21.65195204 -0.33825632
   6.18111066 17.96023226  1.09016064
   6.17490383  5.47527341  1.97046120
   1.48565743 18.44675140 -2.04641856
   1.34738379 21.21554339 -2.52381453
   1.34141176  2.22412861  5.58644080
   2.48341084  4.55420777  2.92178481
   5.31613838 21.16569631  2.79808085
   2.34432110  1.78578396  3.40093040
   1.48012942  4.99237140  5.10713295
   2.48912259 18.88329453  0.13930841
   4.79686587  1.77927423  5.35057676
   6.76890286  3.61557672  3.39084746
   6.77479411 19.82107966 -0.32919881
   4.72214658 20.27424847 -2.05517083
   4.71635689  3.15936527  5.11707869
   2.86377379 21.17130683  0.84846772
   6.69434485 18.44085647 -0.09651532
   6.68794588  4.99560715  3.15749128
   0.97317308 17.95833137  3.03970553
   0.89254404 19.33863162  2.80725290
   0.88586914  4.10189788  0.25489984
   2.93854833  3.64580833  1.98064898
   4.80297451 21.65444954 -2.28764262
   2.85749779  2.26566540  2.21392984
   0.96667399  5.48192800  0.02163882
   2.94441985 19.79110374  1.08085710
   6.02532912 31.37377681 -2.66351012
   6.02252098 24.41351778  1.10589789
   5.46944904 14.71271102  2.78096515
   5.46600565  8.72178234  0.27645811
   1.64323998 24.90024313 -2.02970876
   2.19531184 15.19912734 -0.35492002
   1.63496386 30.89065743  0.47334979
   2.18927328  8.23898885  3.41353729
   5.77256324  3.17341417  1.23990237
   5.77878676 20.26157021  1.82225438
   5.71858622 18.86425842  2.06608579
   5.71201853  4.57053064  0.99535010
   1.88788490 20.74798699 -1.31400247
   1.94807605 19.35065832 -1.07031617
   1.88237477  2.69050070  4.37644889
   1.94282893  4.08765339  4.13190225
   0.88607306 28.37995103 -3.91364074
   6.77604185 27.89411021 -0.77842242
   2.94437607 11.71958129  1.53066106
   4.71451032 12.20248730 -1.60686410
   3.33309263  4.02994437  1.04951216
   7.02136926 17.71782537 -0.83558449
   7.01498036  5.71902580  3.89615629
   4.46961479  1.05591558  4.61201123
   4.47607717 22.37735041 -1.54843095
   4.32767017 19.88991774 -1.12405892
   0.49780983 19.72330829  1.87647219
   0.49156934  3.71805599  1.18624343
   7.16919127 20.20570158 -1.26023528
   0.64010738  6.20527248  0.76058525
   0.64646763 17.23537857  2.30042054
   3.19095304 21.89421193  1.58759863
   3.33919599 19.40656009  2.01174954
   4.32187670  3.54353475  4.18594252
   7.16358823  3.23181268  4.32200604
   3.18413434  1.54230000  1.47497989
   6.98822509 13.68791054  4.09887155
   0.67090849  9.26298787  2.09440983
   4.08874087 15.14776874 -1.51448109
   7.41461872 24.95107985 -0.86386389
   3.16022337 29.86536338  1.78332858
   4.08315741  8.28796423  4.57257633
   0.26377601 31.32700924 -3.81421477
   4.50814240 25.43369760 -0.22072189
   7.39588356 30.84166649 -0.67769965
   3.57560341 14.66403736  1.62188730
   6.98498041  9.74381795 -1.04358555
   4.50138058 30.34777276 -1.35266761
   3.57312468  8.77289489  1.43688929
   0.67521317 14.17640683  0.96307343
   3.15731588 25.92169244 -3.35561353
   0.25082540 24.46722452  2.27395225
   7.23851876 29.53523707 -2.89545403
   6.14988903 29.22102843 -2.11250706
   7.23101371 26.25499735  1.34376032
   4.25772994 12.87350064  2.54527971
   5.34136341 10.87353120 -0.27701698
   1.51594972 27.05165476 -2.58439871
   5.34324947 12.56029312  3.33291255
   4.25588310 10.56244948  0.51178170
   2.31855571 13.04659812  0.19710577
   0.43329391 26.74078233 -1.79172191
   1.51187179 28.73776965  1.02448332
   2.31625206 10.39079420  2.86018452
   6.14833082 26.56483048  0.55069557
   0.42279280 29.05138970  0.24197002
   3.40175683 10.07816823  3.64826207
   3.40433987 13.35830597 -0.59071463
   5.75609315  0.41065567  1.79960477
   5.75838932 23.02471258  1.26335326
   5.73572380 16.10113280  2.62404864
   5.73117449  7.33330322  0.43481861
   1.90813495 23.51143410 -1.87252000
   1.93022870 16.58766698 -0.51235771
   1.89907234 -0.07222759  4.93613160
   1.92331681  6.85052395  3.57140919
   4.96562602 31.37834831  1.33042346
   6.96675727  0.81354489  3.70740943
   6.97320644 22.62418735 -0.64254667
   4.52366241 17.47167967 -1.74069459
   4.51733144  5.96202547  4.80190122
   2.69904469 23.92363961  0.24938846
   6.52843930 15.68824981  0.50290146
   6.52390323  7.74745246  2.55567424
   1.13854918 15.20533522  3.63910870
   0.69501817 22.14169956  2.49362199
   0.68649318  1.29954144  0.57062876
   3.13675712  6.44823223  1.66496817
   4.96585984 24.40672842 -2.88784462
   2.69344050 31.86461429 -1.80603829
   1.13255046  8.23386991 -0.57937716
   3.14290265 16.98834105  1.39486620
 


--------------------------------------------------------------------------------------------------------


 k-point  1 :   0.0000 0.0000 0.0000  plane waves:   50733
 k-point  2 :   0.3333 0.0000 0.0000  plane waves:   50788
 k-point  3 :   0.0000-0.0000 0.2500  plane waves:   50717
 k-point  4 :   0.3333 0.0000 0.2500  plane waves:   50720
 k-point  5 :   0.3333 0.0000-0.2500  plane waves:   50720
 k-point  6 :   0.0000-0.0000 0.5000  plane waves:   50786
 k-point  7 :   0.3333-0.0000 0.5000  plane waves:   50686

 maximum and minimum number of plane-waves per node :     12721    12648

 maximum number of plane-waves:     50788
 maximum index in each direction: 
   IXMAX=   15   IYMAX=   65   IZMAX=   12
   IXMIN=  -15   IYMIN=  -65   IZMIN=  -13


 real space projection operators:
  total allocation   :      12595.42 KBytes
  max/ min on nodes  :       3151.91       3147.22


 parallel 3D FFT for wavefunctions:
    minimum data exchange during FFTs selected (reduces bandwidth)
 parallel 3D FFT for charge:
    minimum data exchange during FFTs selected (reduces bandwidth)


 total amount of memory used by VASP MPI-rank0    87251. kBytes
=======================================================================

   base      :      30000. kBytes
   nonlr-proj:       6419. kBytes
   fftplans  :       4931. kBytes
   grid      :       8918. kBytes
   one-center:        606. kBytes
   wavefun   :      36377. kBytes
 
     INWAV:  cpu time    0.0002: real time    0.0001
 Broyden mixing: mesh for mixing (old mesh)
   NGX = 31   NGY =131   NGZ = 25
  (NGX  = 96   NGY  =392   NGZ  = 80)
  gives a total of 101525 points

 initial charge density was supplied:
 charge density of overlapping atoms calculated
 number of electron     616.0000000 magnetization 
 keeping initial charge density in first step


--------------------------------------------------------------------------------------------------------


 Maximum index for non-local projection operator          574
 Maximum index for augmentation-charges          368 (set IRDMAX)


--------------------------------------------------------------------------------------------------------


 First call to EWALD:  gamma=   0.154
 Maximum number of real-space cells 4x 1x 5
 Maximum number of reciprocal cells 2x 7x 2

    FEWALD:  cpu time    0.0150: real time    0.0150


--------------------------------------- Iteration      1(   1)  ---------------------------------------


    POTLOK:  cpu time    0.0997: real time    0.1382
    SETDIJ:  cpu time    0.0310: real time    0.0322
    EDDIAG:  cpu time    3.1076: real time    3.1984
  RMM-DIIS:  cpu time    3.9474: real time    3.9515
    ORTHCH:  cpu time    0.7180: real time    0.7190
       DOS:  cpu time    0.0046: real time    0.0056
    --------------------------------------------
      LOOP:  cpu time    7.9084: real time    8.0450

 eigenvalue-minimisations  :  2800
 total energy-change (2. order) : 0.5525364E+04  (-0.2838598E+05)
 number of electron     616.0000000 magnetization 
 augmentation part      616.0000000 magnetization 

 Free energy of the ion-electron system (eV)
  ---------------------------------------------------
  alpha Z        PSCENC =      1270.84844694
  Ewald energy   TEWEN  =    -14947.58335226
  -Hartree energ DENC   =    -15908.71468407
  -exchange      EXHF   =         0.00000000
  -V(xc)+E(xc)   XCENC  =      2288.51017692
  PAW double counting   =     25034.14638475   -25847.60581054
  entropy T*S    EENTRO =        -0.04250860
  eigenvalues    EBANDS =      1202.12505726
  atomic energy  EATOM  =     32433.67991533
  Solvation  Ediel_sol  =         0.00000000
  ---------------------------------------------------
  free energy    TOTEN  =      5525.36362573 eV

  energy without entropy =     5525.40613433  energy(sigma->0) =     5525.38488003


--------------------------------------------------------------------------------------------------------




--------------------------------------- Iteration      1(   2)  ---------------------------------------


    EDDIAG:  cpu time    2.9706: real time    2.9734
  RMM-DIIS:  cpu time    3.9089: real time    3.9139
    ORTHCH:  cpu time    0.7163: real time    0.7173
       DOS:  cpu time    0.0033: real time    0.0033
    --------------------------------------------
      LOOP:  cpu time    7.5990: real time    7.6079

 eigenvalue-minimisations  :  2800
 total energy-change (2. order) :-0.3713985E+04  (-0.6678731E+04)
 number of electron     616.0000000 magnetization 
 augmentation part      616.0000000 magnetization 

 Free energy of the ion-electron system (eV)
  ---------------------------------------------------
  alpha Z        PSCENC =      1270.84844694
  Ewald energy   TEWEN  =    -14947.58335226
  -Hartree energ DENC   =    -15908.71468407
  -exchange      EXHF   =         0.00000000
  -V(xc)+E(xc)   XCENC  =      2288.51017692
  PAW double counting   =     25034.14638475   -25847.60581054
  entropy T*S    EENTRO =        -0.02470708
  eigenvalues    EBANDS =     -2511.87725559
  atomic energy  EATOM  =     32433.67991533
  Solvation  Ediel_sol  =         0.00000000
  ---------------------------------------------------
  free energy    TOTEN  =      1811.37911440 eV

  energy without entropy =     1811.40382148  energy(sigma->0) =     1811.39146794


--------------------------------------------------------------------------------------------------------




--------------------------------------- Iteration      1(   3)  ---------------------------------------


    EDDIAG:  cpu time    2.9516: real time    2.9549
  RMM-DIIS:  cpu time    3.8975: real time    3.9014
    ORTHCH:  cpu time    0.7159: real time    0.7169
       DOS:  cpu time    0.0032: real time    0.0032
    --------------------------------------------
      LOOP:  cpu time    7.5682: real time    7.5764

 eigenvalue-minimisations  :  2800
 total energy-change (2. order) :-0.1957232E+04  (-0.2197838E+04)
 number of electron     616.0000000 magnetization 
 augmentation part      616.0000000 magnetization 

 Free energy of the ion-electron system (eV)
  ---------------------------------------------------
  alpha Z        PSCENC =      1270.84844694
  Ewald energy   TEWEN  =    -14947.58335226
  -Hartree energ DENC   =    -15908.71468407
  -exchange      EXHF   =         0.00000000
  -V(xc)+E(xc)   XCENC  =      2288.51017692
  PAW double counting   =     25034.14638475   -25847.60581054
  entropy T*S    EENTRO =        -0.02383591
  eigenvalues    EBANDS =     -4469.11035511
  atomic energy  EATOM  =     32433.67991533
  Solvation  Ediel_sol  =         0.00000000
  ---------------------------------------------------
  free energy    TOTEN  =      -145.85311395 eV

  energy without entropy =     -145.82927804  energy(sigma->0) =     -145.84119599


--------------------------------------------------------------------------------------------------------




--------------------------------------- Iteration      1(   4)  ---------------------------------------


    EDDIAG:  cpu time    2.9539: real time    2.9568
  RMM-DIIS:  cpu time    3.9049: real time    3.9098
    ORTHCH:  cpu time    0.7167: real time    0.7177
       DOS:  cpu time    0.0032: real time    0.0032
    --------------------------------------------
      LOOP:  cpu time    7.5787: real time    7.5875

 eigenvalue-minimisations  :  2800
 total energy-change (2. order) :-0.7156790E+03  (-0.6708438E+03)
 number of electron     616.0000000 magnetization 
 augmentation part      616.0000000 magnetization 

 Free energy of the ion-electron system (eV)
  ---------------------------------------------------
  alpha Z        PSCENC =      1270.84844694
  Ewald energy   TEWEN  =    -14947.58335226
  -Hartree energ DENC   =    -15908.71468407
  -exchange      EXHF   =         0.00000000
  -V(xc)+E(xc)   XCENC  =      2288.51017692
  PAW double counting   =     25034.14638475   -25847.60581054
  entropy T*S    EENTRO =        -0.00833751
  eigenvalues    EBANDS =     -5184.80487522
  atomic energy  EATOM  =     32433.67991533
  Solvation  Ediel_sol  =         0.00000000
  ---------------------------------------------------
  free energy    TOTEN  =      -861.53213567 eV

  energy without entropy =     -861.52379815  energy(sigma->0) =     -861.52796691


--------------------------------------------------------------------------------------------------------




--------------------------------------- Iteration      1(   5)  ---------------------------------------


    EDDIAG:  cpu time    2.9480: real time    2.9512
  RMM-DIIS:  cpu time    3.8954: real time    3.8993
    ORTHCH:  cpu time    0.7167: real time    0.7177
       DOS:  cpu time    0.0031: real time    0.0031
    --------------------------------------------
      LOOP:  cpu time    7.5632: real time    7.5712

 eigenvalue-minimisations  :  2800
 total energy-change (2. order) :-0.2386078E+03  (-0.2086297E+03)
 number of electron     616.0000000 magnetization 
 augmentation part      616.0000000 magnetization 

 Free energy of the ion-electron system (eV)
  ---------------------------------------------------
  alpha Z        PSCENC =      1270.84844694
  Ewald energy   TEWEN  =    -14947.58335226
  -Hartree energ DENC   =    -15908.71468407
  -exchange      EXHF   =         0.00000000
  -V(xc)+E(xc)   XCENC  =      2288.51017692
  PAW double counting   =     25034.14638475   -25847.60581054
  entropy T*S    EENTRO =        -0.00620209
  eigenvalues    EBANDS =     -5423.41484610
  atomic energy  EATOM  =     32433.67991533
  Solvation  Ediel_sol  =         0.00000000
  ---------------------------------------------------
  free energy    TOTEN  =     -1100.13997112 eV

  energy without entropy =    -1100.13376903  energy(sigma->0) =    -1100.13687008


--------------------------------------------------------------------------------------------------------




--------------------------------------- Iteration      1(   6)  ---------------------------------------


    EDDIAG:  cpu time    2.9430: real time    2.9462
  RMM-DIIS:  cpu time    3.9077: real time    3.9127
    ORTHCH:  cpu time    0.7201: real time    0.7201
       DOS:  cpu time    0.0015: real time    0.0015
    --------------------------------------------
      LOOP:  cpu time    7.5723: real time    7.5806

 eigenvalue-minimisations  :  2800
 total energy-change (2. order) :-0.7852701E+02  (-0.6869830E+02)
 number of electron     616.0000000 magnetization 
 augmentation part      616.0000000 magnetization 

 Free energy of the ion-electron system (eV)
  ---------------------------------------------------
  alpha Z        PSCENC =      1270.84844694
  Ewald energy   TEWEN  =    -14947.58335226
  -Hartree energ DENC   =    -15908.71468407
  -exchange      EXHF   =         0.00000000
  -V(xc)+E(xc)   XCENC  =      2288.51017692
  PAW double counting   =     25034.14638475   -25847.60581054
  entropy T*S    EENTRO =        -0.00000000
  eigenvalues    EBANDS =     -5501.94805888
  atomic energy  EATOM  =     32433.67991533
  Solvation  Ediel_sol  =         0.00000000
  ---------------------------------------------------
  free energy    TOTEN  =     -1178.66698181 eV

  energy without entropy =    -1178.66698181  energy(sigma->0) =    -1178.66698181


--------------------------------------------------------------------------------------------------------




--------------------------------------- Iteration      1(   7)  ---------------------------------------


    EDDIAG:  cpu time    2.9480: real time    2.9521
  RMM-DIIS:  cpu time    3.8966: real time    3.9006
    ORTHCH:  cpu time    0.7181: real time    0.7191
       DOS:  cpu time    0.0019: real time    0.0019
    --------------------------------------------
      LOOP:  cpu time    7.5646: real time    7.5737

 eigenvalue-minimisations  :  2800
 total energy-change (2. order) :-0.2897599E+02  (-0.2547844E+02)
 number of electron     616.0000000 magnetization 
 augmentation part      616.0000000 magnetization 

 Free energy of the ion-electron system (eV)
  ---------------------------------------------------
  alpha Z        PSCENC =      1270.84844694
  Ewald energy   TEWEN  =    -14947.58335226
  -Hartree energ DENC   =    -15908.71468407
  -exchange      EXHF   =         0.00000000
  -V(xc)+E(xc)   XCENC  =      2288.51017692
  PAW double counting   =     25034.14638475   -25847.60581054
  entropy T*S    EENTRO =        -0.00000000
  eigenvalues    EBANDS =     -5530.92405058
  atomic energy  EATOM  =     32433.67991533
  Solvation  Ediel_sol  =         0.00000000
  ---------------------------------------------------
  free energy    TOTEN  =     -1207.64297351 eV

  energy without entropy =    -1207.64297351  energy(sigma->0) =    -1207.64297351


--------------------------------------------------------------------------------------------------------




--------------------------------------- Iteration      1(   8)  ---------------------------------------


    EDDIAG:  cpu time    2.9861: real time    2.9894
  RMM-DIIS:  cpu time    3.8950: real time    3.8998
    ORTHCH:  cpu time    0.7194: real time    0.7194
       DOS:  cpu time    0.0015: real time    0.0015
    --------------------------------------------
      LOOP:  cpu time    7.6021: real time    7.6102

 eigenvalue-minimisations  :  2800
 total energy-change (2. order) :-0.1092241E+02  (-0.9579295E+01)
 number of electron     616.0000000 magnetization 
 augmentation part      616.0000000 magnetization 

 Free energy of the ion-electron system (eV)
  ---------------------------------------------------
  alpha Z        PSCENC =      1270.84844694
  Ewald energy   TEWEN  =    -14947.58335226
  -Hartree energ DENC   =    -15908.71468407
  -exchange      EXHF   =         0.00000000
  -V(xc)+E(xc)   XCENC  =      2288.51017692
  PAW double counting   =     25034.14638475   -25847.60581054
  entropy T*S    EENTRO =        -0.00000000
  eigenvalues    EBANDS =     -5541.84645985
  atomic energy  EATOM  =     32433.67991533
  Solvation  Ediel_sol  =         0.00000000
  ---------------------------------------------------
  free energy    TOTEN  =     -1218.56538278 eV

[...]
   0.201E+02 -.352E+02 -.339E+02   -.390E+02 0.505E+02 0.400E+02   0.190E+02 -.154E+02 -.613E+01   -.141E-03 0.981E-03 0.170E-03
   0.271E+03 0.122E+03 0.134E+02   -.280E+03 -.144E+03 -.667E+01   0.908E+01 0.222E+02 -.680E+01   -.786E-03 -.130E-02 0.886E-04
   0.188E+02 -.350E+02 -.345E+02   -.377E+02 0.503E+02 0.407E+02   0.189E+02 -.154E+02 -.621E+01   -.146E-03 0.985E-03 0.177E-03
   -.271E+03 0.123E+03 0.139E+02   0.280E+03 -.145E+03 -.718E+01   -.909E+01 0.222E+02 -.674E+01   0.778E-03 -.129E-02 0.964E-04
   0.271E+03 -.122E+03 -.133E+02   -.280E+03 0.144E+03 0.657E+01   0.903E+01 -.221E+02 0.681E+01   -.783E-03 0.129E-02 -.855E-04
   0.271E+03 -.121E+03 -.128E+02   -.280E+03 0.144E+03 0.598E+01   0.903E+01 -.221E+02 0.689E+01   -.776E-03 0.129E-02 -.918E-04
   0.210E+02 0.347E+02 0.328E+02   -.399E+02 -.500E+02 -.388E+02   0.190E+02 0.153E+02 0.602E+01   -.152E-03 -.973E-03 -.174E-03
   -.200E+02 -.351E+02 -.338E+02   0.389E+02 0.504E+02 0.399E+02   -.190E+02 -.153E+02 -.612E+01   0.145E-03 0.970E-03 0.182E-03
   -.198E+02 0.346E+02 0.335E+02   0.387E+02 -.499E+02 -.396E+02   -.189E+02 0.153E+02 0.612E+01   0.141E-03 -.979E-03 -.168E-03
   0.971E+02 0.114E+03 -.126E+02   -.104E+03 -.114E+03 0.153E+02   0.673E+01 0.114E+00 -.278E+01   0.155E-03 -.587E-03 -.180E-03
   0.965E+02 -.114E+03 0.127E+02   -.103E+03 0.114E+03 -.155E+02   0.676E+01 -.963E-01 0.280E+01   0.146E-03 0.586E-03 0.188E-03
   -.968E+02 0.114E+03 -.126E+02   0.104E+03 -.114E+03 0.154E+02   -.673E+01 0.107E+00 -.278E+01   -.152E-03 -.589E-03 -.184E-03
   -.967E+02 -.114E+03 0.127E+02   0.103E+03 0.114E+03 -.154E+02   -.676E+01 -.105E+00 0.279E+01   -.148E-03 0.596E-03 0.172E-03
   -.966E+02 -.114E+03 0.127E+02   0.103E+03 0.114E+03 -.155E+02   -.677E+01 -.104E+00 0.279E+01   -.147E-03 0.581E-03 0.195E-03
   0.968E+02 0.114E+03 -.127E+02   -.104E+03 -.114E+03 0.154E+02   0.674E+01 0.971E-01 -.278E+01   0.145E-03 -.584E-03 -.187E-03
   -.970E+02 0.114E+03 -.126E+02   0.104E+03 -.114E+03 0.153E+02   -.674E+01 0.107E+00 -.278E+01   -.154E-03 -.587E-03 -.180E-03
   0.969E+02 -.114E+03 0.127E+02   -.104E+03 0.114E+03 -.155E+02   0.678E+01 -.105E+00 0.279E+01   0.162E-03 0.569E-03 0.171E-03
   0.113E+03 0.305E+03 0.199E+03   -.129E+03 -.342E+03 -.236E+03   0.155E+02 0.366E+02 0.375E+02   0.123E-03 -.101E-02 0.367E-03
   -.540E+02 0.158E+03 -.151E+03   0.785E+02 -.178E+03 0.194E+03   -.245E+02 0.198E+02 -.426E+02   -.316E-03 -.547E-03 -.821E-03
   -.549E+02 -.158E+03 0.151E+03   0.795E+02 0.178E+03 -.194E+03   -.246E+02 -.199E+02 0.425E+02   -.315E-03 0.554E-03 0.810E-03
   0.541E+02 0.158E+03 -.151E+03   -.787E+02 -.178E+03 0.194E+03   0.246E+02 0.198E+02 -.425E+02   0.314E-03 -.542E-03 -.814E-03
   0.547E+02 -.158E+03 0.151E+03   -.793E+02 0.178E+03 -.194E+03   0.246E+02 -.198E+02 0.425E+02   0.309E-03 0.547E-03 0.802E-03
   -.112E+03 -.305E+03 -.199E+03   0.128E+03 0.341E+03 0.237E+03   -.155E+02 -.365E+02 -.376E+02   -.125E-03 0.990E-03 -.378E-03
   -.113E+03 0.305E+03 0.199E+03   0.128E+03 -.341E+03 -.237E+03   -.155E+02 0.365E+02 0.375E+02   -.123E-03 -.101E-02 0.371E-03
   -.113E+03 -.305E+03 -.199E+03   0.128E+03 0.342E+03 0.236E+03   -.155E+02 -.366E+02 -.375E+02   -.124E-03 0.101E-02 -.366E-03
   0.113E+03 0.305E+03 0.199E+03   -.129E+03 -.341E+03 -.236E+03   0.155E+02 0.365E+02 0.375E+02   0.127E-03 -.996E-03 0.382E-03
   0.548E+02 -.158E+03 0.151E+03   -.794E+02 0.178E+03 -.194E+03   0.246E+02 -.199E+02 0.425E+02   0.317E-03 0.548E-03 0.810E-03
   0.541E+02 0.158E+03 -.151E+03   -.787E+02 -.178E+03 0.194E+03   0.246E+02 0.198E+02 -.425E+02   0.318E-03 -.549E-03 -.819E-03
   -.546E+02 -.158E+03 0.151E+03   0.792E+02 0.178E+03 -.194E+03   -.246E+02 -.198E+02 0.425E+02   -.340E-03 0.521E-03 0.857E-03
   0.112E+03 -.305E+03 -.199E+03   -.128E+03 0.341E+03 0.236E+03   0.155E+02 -.366E+02 -.375E+02   0.122E-03 0.100E-02 -.372E-03
   -.113E+03 0.305E+03 0.199E+03   0.129E+03 -.342E+03 -.236E+03   -.155E+02 0.366E+02 0.375E+02   -.130E-03 -.998E-03 0.370E-03
   0.113E+03 -.305E+03 -.199E+03   -.128E+03 0.342E+03 0.237E+03   0.155E+02 -.366E+02 -.375E+02   0.123E-03 0.990E-03 -.384E-03
   -.544E+02 0.158E+03 -.151E+03   0.790E+02 -.178E+03 0.194E+03   -.246E+02 0.199E+02 -.425E+02   -.316E-03 -.548E-03 -.815E-03
 -----------------------------------------------------------------------------------------------
   0.945E-03 0.272E-01 0.161E+00   0.369E-12 0.142E-11 0.171E-12   -.983E-03 -.548E-01 -.187E+00   -.153E-04 -.531E-04 0.157E-04
 
 
 POSITION                                       TOTAL-FORCE (eV/Angst)
 -----------------------------------------------------------------------------------
      7.16885     30.82184     -3.22664        -0.000533     -0.000903      0.003835
      5.40180     30.34290     -1.95694        -0.000441      0.001276      0.000582
      7.16014     24.96904      1.67759         0.000192     -0.000881     -0.001260
      4.32852     14.15992      2.21345        -0.000242      0.000350      0.002370
      6.08763      9.75068     -0.43467        -0.002222     -0.002844      0.001742
      2.26210     25.92891     -2.74360        -0.001112     -0.003465      0.001756
      6.09045     13.68249      3.49070         0.000451      0.001090     -0.000343
      4.32599      9.27616      0.84454        -0.001913     -0.000573     -0.003623
      1.57296     14.16976      0.35491         0.000002      0.003105     -0.000395
      0.50506     25.45480     -1.45817         0.000518      0.000194     -0.000629
      2.25949     29.86004      1.17956         0.000097      0.002558      0.001027
      1.56856      9.26881      2.70289         0.000421     -0.001913      0.001110
      5.40312     25.44152      0.39160         0.000415     -0.004281      0.000283
      0.49154     30.33802     -0.08916         0.000060     -0.000880      0.004346
      3.33028      8.79199      3.98094         0.000589      0.000295     -0.003307
      3.33529     14.64478     -0.92269        -0.000908     -0.000897      0.004185
      5.32659      0.81531      0.51750         0.001203     -0.000901     -0.001148
      6.39240      1.26405      2.71458         0.000578     -0.000008      0.001835
      6.39733     22.17252      0.34874         0.001574     -0.002790     -0.001639
      5.09904     16.95375      3.53972         0.000401     -0.001574     -0.000029
      5.09258      6.48040     -0.47913        -0.001507     -0.002318     -0.002835
      2.33558     23.10551     -0.59015         0.000528     -0.000871      0.001267
      6.16471     16.50665      1.34208        -0.000878     -0.000350     -0.001394
      6.15958      6.92854      1.71724        -0.001034     -0.000186      0.000463
      1.50177     16.99301     -1.79447        -0.000631      0.003989     -0.004758
      1.26966     22.65930     -2.78747        -0.000495     -0.003933     -0.001887
      1.26227      0.78096      5.85096        -0.001173      0.002372      0.003087
      2.56138      5.99756      2.65706         0.001829     -0.001728     -0.002431
      5.33081     22.61915      2.54577         0.000355     -0.000779      0.001173
      2.32778      0.33235      3.65375         0.000049      0.001494     -0.002367
      1.49599      6.44568      4.85424         0.001362     -0.000373      0.001091
      2.56782     17.43998      0.40299        -0.000382     -0.000261      0.000109
      5.30974      2.26872      0.26475        -0.000239      0.001364      0.001966
      6.31386      2.70711      2.44981        -0.002283      0.003025     -0.000713
      6.31928     20.72883      0.61238        -0.000584      0.004537     -0.002856
      5.17770     18.39705      3.27583         0.000525      0.003392      0.002115
      5.17108      5.03702     -0.21458        -0.000231      0.000357     -0.003317
      2.35082     21.65195     -0.33826         0.001301     -0.001147     -0.002330
      6.18111     17.96023      1.09016        -0.000128      0.001672      0.002828
      6.17490      5.47527      1.97046        -0.000997     -0.001311     -0.006193
      1.48566     18.44675     -2.04642         0.000043     -0.001256      0.002743
      1.34738     21.21554     -2.52381         0.001417      0.004498     -0.001013
      1.34141      2.22413      5.58644         0.000067      0.000513      0.002867
      2.48341      4.55421      2.92178        -0.001767     -0.000561     -0.001875
      5.31614     21.16570      2.79808         0.000167     -0.002146     -0.003617
      2.34432      1.78578      3.40093         0.001436      0.002139      0.001211
      1.48013      4.99237      5.10713        -0.000299     -0.002722     -0.004385
      2.48912     18.88329      0.13931        -0.001128      0.003179      0.001134
      4.79687      1.77927      5.35058         0.000581      0.001602     -0.000317
      6.76890      3.61558      3.39085         0.000032     -0.002595     -0.002713
      6.77479     19.82108     -0.32920        -0.000080      0.002003     -0.000701
      4.72215     20.27425     -2.05517        -0.000479     -0.003822     -0.000652
      4.71636      3.15937      5.11708         0.001050      0.001617      0.002150
      2.86377     21.17131      0.84847        -0.000484      0.004843      0.000095
      6.69434     18.44086     -0.09652        -0.000083     -0.000681     -0.001147
      6.68795      4.99561      3.15749        -0.001158      0.002292      0.000735
      0.97317     17.95833      3.03971         0.000246     -0.000207     -0.000894
      0.89254     19.33863      2.80725         0.000620      0.001035      0.002302
      0.88587      4.10190      0.25490        -0.000512     -0.004192     -0.002016
      2.93855      3.64581      1.98065        -0.000156      0.000062      0.002051
      4.80297     21.65445     -2.28764         0.000801      0.001640     -0.000297
      2.85750      2.26567      2.21393         0.000336      0.001321     -0.001554
      0.96667      5.48193      0.02164         0.001080      0.003811     -0.000596
      2.94442     19.79110      1.08086         0.001672     -0.003959     -0.000424
      6.02533     31.37378     -2.66351        -0.001902      0.002538      0.002449
      6.02252     24.41352      1.10590         0.000911     -0.003244     -0.001266
      5.46945     14.71271      2.78097        -0.000146      0.001810      0.002764
      5.46601      8.72178      0.27646        -0.000041     -0.003072      0.000035
      1.64324     24.90024     -2.02971         0.001409     -0.003667     -0.000243
      2.19531     15.19913     -0.35492        -0.002993      0.001967      0.002332
      1.63496     30.89066      0.47335         0.002565      0.002698      0.003065
      2.18927      8.23899      3.41354         0.000671     -0.002270     -0.001907
      5.77256      3.17341      1.23990         0.001660      0.000810     -0.002745
      5.77879     20.26157      1.82225        -0.000203     -0.002800      0.002517
      5.71859     18.86426      2.06609        -0.001672      0.001129     -0.003309
      5.71202      4.57053      0.99535         0.000499     -0.001671      0.002136
      1.88788     20.74799     -1.31400         0.000320     -0.001711     -0.000245
      1.94808     19.35066     -1.07032         0.001219      0.000773     -0.003969
      1.88237      2.69050      4.37645        -0.001516      0.001846     -0.002847
      1.94283      4.08765      4.13190        -0.000050     -0.001680      0.001225
      0.88607     28.37995     -3.91364         0.007030      0.000022     -0.006621
      6.77604     27.89411     -0.77842        -0.005366      0.002299     -0.003027
      2.94438     11.71958      1.53066        -0.001397     -0.003098     -0.004928
      4.71451     12.20249     -1.60686         0.001921      0.000819     -0.002727
      3.33309      4.02994      1.04951        -0.000172     -0.001155      0.000069
      7.02137     17.71783     -0.83558         0.000045     -0.000935      0.000740
      7.01498      5.71903      3.89616         0.000029      0.001043     -0.000700
      4.46961      1.05592      4.61201        -0.000504     -0.002496     -0.000111
      4.47608     22.37735     -1.54843         0.000208      0.001433     -0.000467
      4.32767     19.88992     -1.12406         0.001022      0.000314     -0.000892
      0.49781     19.72331      1.87647        -0.000085      0.000109     -0.001250
      0.49157      3.71806      1.18624         0.000019      0.000023     -0.000179
      7.16919     20.20570     -1.26024        -0.000016     -0.000527      0.001168
      0.64011      6.20527      0.76059        -0.000497      0.001125     -0.001263
      0.64647     17.23538      2.30042        -0.001112     -0.000734      0.000729
      3.19095     21.89421      1.58760        -0.000465      0.000230     -0.001340
      3.33920     19.40656      2.01175        -0.000914      0.000513     -0.000676
      4.32188      3.54353      4.18594        -0.000790     -0.000743     -0.000319
      7.16359      3.23181      4.32201        -0.000305     -0.000737      0.001377
      3.18413      1.54230      1.47498         0.000469     -0.001018      0.001730
      6.98823     13.68791      4.09887         0.002542      0.001094     -0.001173
      0.67091      9.26299      2.09441        -0.000203      0.001262      0.001749
      4.08874     15.14777     -1.51448         0.001310      0.002695      0.003217
      7.41462     24.95108     -0.86386        -0.001699     -0.002148     -0.002546
      3.16022     29.86536      1.78333         0.002252      0.000841     -0.000444
      4.08316      8.28796      4.57258         0.001402     -0.002545     -0.001376
      0.26378     31.32701     -3.81421         0.001004      0.002225      0.004249
      4.50814     25.43370     -0.22072        -0.000109      0.001471      0.002108
      7.39588     30.84167     -0.67770        -0.001898      0.001712      0.001729
      3.57560     14.66404      1.62189        -0.000796      0.002058      0.003773
      6.98498      9.74382     -1.04359        -0.000499      0.001127      0.002099
      4.50138     30.34777     -1.35267        -0.002167      0.000975     -0.000816
      3.57312      8.77289      1.43689        -0.001602     -0.001042     -0.002845
      0.67521     14.17641      0.96307        -0.002119      0.000818     -0.001118
      3.15732     25.92169     -3.35561        -0.000242      0.001973      0.001704
      0.25083     24.46722      2.27395         0.001655     -0.001051     -0.002915
      7.23852     29.53524     -2.89545         0.002117     -0.002305      0.001921
      6.14989     29.22103     -2.11251         0.002961      0.002626      0.003800
      7.23101     26.25500      1.34376        -0.000004     -0.002512     -0.001175
      4.25773     12.87350      2.54528        -0.001761     -0.000435      0.004508
      5.34136     10.87353     -0.27702         0.000271      0.000346      0.002046
      1.51595     27.05165     -2.58440         0.000984     -0.000558      0.000691
      5.34325     12.56029      3.33291        -0.001953      0.003189      0.003025
      4.25588     10.56245      0.51178         0.000355     -0.001866      0.001176
      2.31856     13.04660      0.19711         0.002145      0.004841      0.002588
      0.43329     26.74078     -1.79172        -0.000798     -0.001406      0.000338
      1.51187     28.73777      1.02448        -0.000870      0.005661      0.002114
      2.31625     10.39079      2.86018        -0.000124     -0.000965      0.002291
      6.14833     26.56483      0.55070        -0.000558      0.000214      0.002673
      0.42279     29.05139      0.24197        -0.003996     -0.003598      0.002168
      3.40176     10.07817      3.64826        -0.000192      0.000039      0.001195
      3.40434     13.35831     -0.59071         0.003340     -0.001226      0.003088
      5.75609      0.41066      1.79960        -0.001940     -0.001313      0.002313
      5.75839     23.02471      1.26335         0.002657      0.000697     -0.006203
      5.73572     16.10113      2.62405         0.001232     -0.000791      0.005759
      5.73117      7.33330      0.43482        -0.001722      0.000052     -0.005788
      1.90813     23.51143     -1.87252        -0.002952      0.002042     -0.007680
      1.93023     16.58767     -0.51236         0.001233     -0.002725      0.007884
      1.89907     -0.07223      4.93613         0.002219     -0.005293      0.002938
      1.92332      6.85052      3.57141         0.001315      0.001657     -0.005091
      4.96563     31.37835      1.33042         0.000128     -0.001287     -0.000372
      6.96676      0.81354      3.70741        -0.002433      0.000323      0.001929
      6.97321     22.62419     -0.64255        -0.001798      0.000701     -0.000828
      4.52366     17.47168     -1.74069         0.002821      0.000378      0.001087
      4.51733      5.96203      4.80190         0.000866     -0.001600     -0.001552
      2.69904     23.92364      0.24939         0.001199     -0.000398     -0.000026
      6.52844     15.68825      0.50290         0.000655     -0.001091     -0.002083
      6.52390      7.74745      2.55567         0.001956      0.000268     -0.000238
      1.13855     15.20534      3.63911        -0.001278      0.000191     -0.000887
      0.69502     22.14170      2.49362         0.001778      0.000393      0.000286
      0.68649      1.29954      0.57063         0.001586     -0.000206      0.001411
      3.13676      6.44823      1.66497        -0.002096      0.001020     -0.000897
      4.96586     24.40673     -2.88784        -0.001258     -0.000735     -0.000968
      2.69344     31.86461     -1.80604         0.001256     -0.000854      0.000310
      1.13255      8.23387     -0.57938        -0.002049      0.000118     -0.000301
      3.14290     16.98834      1.39487        -0.001890      0.000686      0.001047
 -----------------------------------------------------------------------------------
    total drift:                               -0.000053     -0.027720     -0.026193


--------------------------------------------------------------------------------------------------------



  FREE ENERGIE OF THE ION-ELECTRON SYSTEM (eV)
  ---------------------------------------------------
  free  energy   TOTEN  =     -1160.70897400 eV

  energy  without entropy=    -1160.70897400  energy(sigma->0) =    -1160.70897400
 


--------------------------------------------------------------------------------------------------------


    POTLOK:  cpu time    0.1249: real time    0.1253


--------------------------------------------------------------------------------------------------------




--------------------------------------------------------------------------------------------------------


  
 reached required accuracy - stopping structural energy minimisation
 writing wavefunctions
     LOOP+:  cpu time  314.1101: real time  320.3943
    4ORBIT:  cpu time    0.0000: real time    0.0000

 total amount of memory used by VASP MPI-rank0    87251. kBytes
=======================================================================

   base      :      30000. kBytes
   nonlr-proj:       6419. kBytes
   fftplans  :       4931. kBytes
   grid      :       8918. kBytes
   one-center:        606. kBytes
   wavefun   :      36377. kBytes
 
  
  
 General timing and accounting informations for this job:
 ========================================================
  
                  Total CPU time used (sec):      366.663
                            User time (sec):      334.692
                          System time (sec):       31.971
                         Elapsed time (sec):      374.080
  
                   Maximum memory used (kb):     1094560.
                   Average memory used (kb):           0.
  
                          Minor page faults:       358427
                          Major page faults:            9
                 Voluntary context switches:         9507
