       N       E                     dE             d eps       ncg     rms          rms(c)
RMM:   1     0.828303516681E+04    0.82830E+04   -0.22021E+05  1200   0.124E+03
RMM:   2     0.315569079825E+04   -0.51273E+04   -0.67284E+04  1200   0.277E+02
RMM:   3     0.107014371965E+04   -0.20855E+04   -0.29289E+04  1200   0.181E+02
RMM:   4    -0.341269351289E+03   -0.14114E+04   -0.14170E+04  1200   0.152E+02
RMM:   5    -0.936751582836E+03   -0.59548E+03   -0.52955E+03  1200   0.988E+01
RMM:   6    -0.114219759699E+04   -0.20545E+03   -0.17962E+03  1200   0.613E+01
RMM:   7    -0.120395481435E+04   -0.61757E+02   -0.57395E+02  1200   0.348E+01
RMM:   8    -0.122682173585E+04   -0.22867E+02   -0.19836E+02  1200   0.211E+01
RMM:   9    -0.123932265460E+04   -0.12501E+02   -0.11966E+02  2807   0.123E+01
RMM:  10    -0.124025139739E+04   -0.92874E+00   -0.88196E+00  3231   0.375E+00
RMM:  11    -0.124030111552E+04   -0.49718E-01   -0.38930E-01  2855   0.732E-01
RMM:  12    -0.124030427747E+04   -0.31620E-02   -0.29878E-02  3199   0.211E-01    0.576E+01
RMM:  13    -0.116845996807E+04    0.71844E+02   -0.16268E+02  2400   0.164E+01    0.320E+01
RMM:  14    -0.115349612262E+04    0.14964E+02   -0.44232E+01  2400   0.852E+00    0.148E+01
RMM:  15    -0.115187001958E+04    0.16261E+01   -0.10371E+01  2401   0.445E+00    0.496E+00
RMM:  16    -0.115162986720E+04    0.24015E+00   -0.83601E-01  2451   0.142E+00    0.143E+00
RMM:  17    -0.115159844854E+04    0.31419E-01   -0.16684E-01  2420   0.668E-01    0.506E-01
RMM:  18    -0.115158891334E+04    0.95352E-02   -0.57797E-02  2405   0.302E-01    0.289E-01
RMM:  19    -0.115158867396E+04    0.23938E-03   -0.13153E-02  2422   0.162E-01    0.151E-01
RMM:  20    -0.115159581241E+04   -0.71385E-02   -0.12924E-02  2400   0.133E-01    0.108E-01
RMM:  21    -0.115159942146E+04   -0.36090E-02   -0.63129E-03  2400   0.840E-02    0.820E-02
RMM:  22    -0.115160335225E+04   -0.39308E-02   -0.21724E-03  2400   0.569E-02    0.399E-02
RMM:  23    -0.115160581327E+04   -0.24610E-02   -0.40757E-04  2426   0.253E-02    0.278E-02
RMM:  24    -0.115160904476E+04   -0.32315E-02   -0.35766E-04  2424   0.224E-02    0.194E-02
RMM:  25    -0.115161108221E+04   -0.20375E-02   -0.24925E-04  2400   0.175E-02    0.126E-02
RMM:  26    -0.115161209295E+04   -0.10107E-02   -0.74501E-05  2278   0.872E-03    0.493E-03
RMM:  27    -0.115161256821E+04   -0.47526E-03   -0.30919E-05  2151   0.519E-03    0.386E-03
RMM:  28    -0.115161276729E+04   -0.19908E-03   -0.12839E-05  2001   0.355E-03    0.144E-03
RMM:  29    -0.115161282586E+04   -0.58572E-04   -0.33014E-06  1694   0.179E-03    0.707E-04
RMM:  30    -0.115161284713E+04   -0.21265E-04   -0.11077E-06  1509   0.107E-03    0.502E-04
RMM:  31    -0.115161285139E+04   -0.42642E-05   -0.34742E-07  1173   0.686E-04    0.343E-04
RMM:  32    -0.115161285255E+04   -0.11606E-05   -0.16075E-07  1128   0.547E-04    0.289E-04
RMM:  33    -0.115161285286E+04   -0.30697E-06   -0.57862E-08   879   0.386E-04
   1 F= -.11620048E+04 E0= -.11620048E+04  d E =-.116200E+04
