 vasp.6.0.8 29Jun18 (build Mar 14 2019 11:44:20) complex                        
  
 executed on             LinuxIFC date 2021.01.18  11:55:51
 running   64 mpi-ranks, with    1 threads/rank
 distrk:  each k-point on   64 cores,    1 groups
 distr:  one band on NCORES_PER_BAND=   4 cores,   16 groups


--------------------------------------------------------------------------------------------------------


 INCAR:
 POTCAR:    PAW_PBE C 08Apr2002                   
 POTCAR:    PAW_PBE Zn 06Sep2000                  
 POTCAR:    PAW_PBE H 15Jun2001                   
 POTCAR:    PAW_PBE N 08Apr2002                   
 POTCAR:    PAW_PBE O 08Apr2002                   
 POTCAR:    PAW_PBE C 08Apr2002                   
   VRHFIN =C: s2p2                                                              
   LEXCH  = PE                                                                  
   EATOM  =   147.1560 eV,   10.8157 Ry                                         
                                                                                
   TITEL  = PAW_PBE C 08Apr2002                                                 
   LULTRA =        F    use ultrasoft PP ?                                      
   IUNSCR =        1    unscreen: 0-lin 1-nonlin 2-no                           
   RPACOR =    1.200    partial core radius                                     
   POMASS =   12.011; ZVAL   =    4.000    mass and valenz                      
   RCORE  =    1.500    outmost cutoff radius                                   
   RWIGS  =    1.630; RWIGS  =    0.863    wigner-seitz radius (au A)           
   ENMAX  =  400.000; ENMIN  =  300.000 eV                                      
   ICORE  =        2    local potential                                         
   LCOR   =        T    correct aug charges                                     
   LPAW   =        T    paw PP                                                  
   EAUG   =  644.873                                                            
   DEXC   =    0.000                                                            
   RMAX   =    1.529    core radius for proj-oper                               
   RAUG   =    1.300    factor for augmentation sphere                          
   RDEP   =    1.501    radius for radial grids                                 
   RDEPT  =    1.300    core radius for aug-charge                              
                                                                                
   Atomic configuration                                                         
    4 entries                                                                   
     n  l   j            E        occ.                                          
     1  0  0.50      -273.3789   2.0000                                         
     2  0  0.50       -13.7508   2.0000                                         
     2  1  0.50        -5.2854   2.0000                                         
     3  2  1.50        -5.4423   0.0000                                         
   Description                                                                  
     l       E           TYP  RCUT    TYP  RCUT                                 
     0    -13.7508458     23  1.200                                             
     0     -8.2022199     23  1.200                                             
     1     -5.2854383     23  1.500                                             
     1     34.0145650     23  1.500                                             
     2     -5.4423304      7  1.500                                             
  local pseudopotential read in
  partial core-charges read in
  partial kinetic energy density read in
  atomic valenz-charges read in
  non local Contribution for L=           0  read in
    real space projection operators read in
  non local Contribution for L=           0  read in
    real space projection operators read in
  non local Contribution for L=           1  read in
    real space projection operators read in
  non local Contribution for L=           1  read in
    real space projection operators read in
    PAW grid and wavefunctions read in
 
   number of l-projection  operators is LMAX  =           4
   number of lm-projection operators is LMMAX =           8
 
 POTCAR:    PAW_PBE Zn 06Sep2000                  
   VRHFIN =Zn: d10 p2                                                           
   LEXCH  = PE                                                                  
   EATOM  =  1748.8345 eV,  128.5357 Ry                                         
                                                                                
   TITEL  = PAW_PBE Zn 06Sep2000                                                
   LULTRA =        F    use ultrasoft PP ?                                      
   IUNSCR =        1    unscreen: 0-lin 1-nonlin 2-no                           
   RPACOR =    2.000    partial core radius                                     
   POMASS =   65.390; ZVAL   =   12.000    mass and valenz                      
   RCORE  =    2.300    outmost cutoff radius                                   
   RWIGS  =    2.400; RWIGS  =    1.270    wigner-seitz radius (au A)           
   ENMAX  =  276.723; ENMIN  =  207.542 eV                                      
   RCLOC  =    1.828    cutoff for local pot                                    
   LCOR   =        T    correct aug charges                                     
   LPAW   =        T    paw PP                                                  
   EAUG   =  575.892                                                            
   DEXC   =    0.000                                                            
   RMAX   =    2.347    core radius for proj-oper                               
   RAUG   =    1.300    factor for augmentation sphere                          
   RDEP   =    2.324    radius for radial grids                                 
   RDEPT  =    1.788    core radius for aug-charge                              
                                                                                
   Atomic configuration                                                         
    9 entries                                                                   
     n  l   j            E        occ.                                          
     1  0  0.50     -9524.6913   2.0000                                         
     2  0  0.50     -1158.1882   2.0000                                         
     2  1  1.50     -1003.8506   6.0000                                         
     3  0  0.50      -129.2194   2.0000                                         
     3  1  1.50       -83.3890   6.0000                                         
     3  2  2.50       -10.1410  10.0000                                         
     4  0  0.50        -5.9785   2.0000                                         
     4  1  0.50        -4.0817   0.0000                                         
     4  3  2.50        -1.3606   0.0000                                         
   Description                                                                  
     l       E           TYP  RCUT    TYP  RCUT                                 
     2    -10.1410010     23  2.300                                             
     2    -11.5015836     23  2.300                                             
     0     -5.9785163     23  2.300                                             
     0      1.1858015     23  2.300                                             
     1     -2.7211652     23  2.300                                             
     1     13.2444212     23  2.300                                             
  local pseudopotential read in
  partial core-charges read in
  partial kinetic energy density read in
  atomic valenz-charges read in
  non local Contribution for L=           2  read in
    real space projection operators read in
  non local Contribution for L=           2  read in
    real space projection operators read in
  non local Contribution for L=           0  read in
    real space projection operators read in
  non local Contribution for L=           0  read in
    real space projection operators read in
  non local Contribution for L=           1  read in
    real space projection operators read in
  non local Contribution for L=           1  read in
    real space projection operators read in
    PAW grid and wavefunctions read in
 
   number of l-projection  operators is LMAX  =           6
   number of lm-projection operators is LMMAX =          18
 
 POTCAR:    PAW_PBE H 15Jun2001                   
   VRHFIN =H: ultrasoft test                                                    
   LEXCH  = PE                                                                  
   EATOM  =    12.4884 eV,    0.9179 Ry                                         
                                                                                
   TITEL  = PAW_PBE H 15Jun2001                                                 
   LULTRA =        F    use ultrasoft PP ?                                      
   IUNSCR =        0    unscreen: 0-lin 1-nonlin 2-no                           
   RPACOR =    0.000    partial core radius                                     
   POMASS =    1.000; ZVAL   =    1.000    mass and valenz                      
   RCORE  =    1.100    outmost cutoff radius                                   
   RWIGS  =    0.700; RWIGS  =    0.370    wigner-seitz radius (au A)           
   ENMAX  =  250.000; ENMIN  =  200.000 eV                                      
   RCLOC  =    0.701    cutoff for local pot                                    
   LCOR   =        T    correct aug charges                                     
   LPAW   =        T    paw PP                                                  
   EAUG   =  400.000                                                            
   RMAX   =    1.123    core radius for proj-oper                               
   RAUG   =    1.200    factor for augmentation sphere                          
   RDEP   =    1.112    radius for radial grids                                 
   RDEPT  =    0.926    core radius for aug-charge                              
                                                                                
   Atomic configuration                                                         
    2 entries                                                                   
     n  l   j            E        occ.                                          
     1  0  0.50        -6.4927   1.0000                                         
     2  1  0.50        -3.4015   0.0000                                         
   Description                                                                  
     l       E           TYP  RCUT    TYP  RCUT                                 
     0     -6.4927494     23  1.100                                             
     0      6.8029130     23  1.100                                             
     1     -4.0817478     23  1.100                                             
  local pseudopotential read in
  atomic valenz-charges read in
  non local Contribution for L=           0  read in
    real space projection operators read in
  non local Contribution for L=           0  read in
    real space projection operators read in
  non local Contribution for L=           1  read in
    real space projection operators read in
    PAW grid and wavefunctions read in
 
   number of l-projection  operators is LMAX  =           3
   number of lm-projection operators is LMMAX =           5
 
 POTCAR:    PAW_PBE N 08Apr2002                   
   VRHFIN =N: s2p3                                                              
   LEXCH  = PE                                                                  
   EATOM  =   264.5486 eV,   19.4438 Ry                                         
                                                                                
   TITEL  = PAW_PBE N 08Apr2002                                                 
   LULTRA =        F    use ultrasoft PP ?                                      
   IUNSCR =        1    unscreen: 0-lin 1-nonlin 2-no                           
   RPACOR =    1.200    partial core radius                                     
   POMASS =   14.001; ZVAL   =    5.000    mass and valenz                      
   RCORE  =    1.500    outmost cutoff radius                                   
   RWIGS  =    1.400; RWIGS  =    0.741    wigner-seitz radius (au A)           
   ENMAX  =  400.000; ENMIN  =  300.000 eV                                      
   ICORE  =        2    local potential                                         
   LCOR   =        T    correct aug charges                                     
   LPAW   =        T    paw PP                                                  
   EAUG   =  627.112                                                            
   DEXC   =    0.000                                                            
   RMAX   =    1.529    core radius for proj-oper                               
   RAUG   =    1.300    factor for augmentation sphere                          
   RDEP   =    1.514    radius for radial grids                                 
   RDEPT  =    1.338    core radius for aug-charge                              
                                                                                
   Atomic configuration                                                         
    4 entries                                                                   
     n  l   j            E        occ.                                          
     1  0  0.50      -384.7179   2.0000                                         
     2  0  0.50       -18.5828   2.0000                                         
     2  1  0.50        -7.0898   3.0000                                         
     3  2  1.50        -6.8029   0.0000                                         
   Description                                                                  
     l       E           TYP  RCUT    TYP  RCUT                                 
     0    -18.5828119     23  1.200                                             
     0    -13.5018863     23  1.200                                             
     1     -7.0897853     23  1.500                                             
     1      9.5240782     23  1.500                                             
     2     -6.8029130      7  1.500                                             
  local pseudopotential read in
  partial core-charges read in
  partial kinetic energy density read in
  atomic valenz-charges read in
  non local Contribution for L=           0  read in
    real space projection operators read in
  non local Contribution for L=           0  read in
    real space projection operators read in
  non local Contribution for L=           1  read in
    real space projection operators read in
  non local Contribution for L=           1  read in
    real space projection operators read in
    PAW grid and wavefunctions read in
 
   number of l-projection  operators is LMAX  =           4
   number of lm-projection operators is LMMAX =           8
 
 POTCAR:    PAW_PBE O 08Apr2002                   
   VRHFIN =O: s2p4                                                              
   LEXCH  = PE                                                                  
   EATOM  =   432.3788 eV,   31.7789 Ry                                         
                                                                                
   TITEL  = PAW_PBE O 08Apr2002                                                 
   LULTRA =        F    use ultrasoft PP ?                                      
   IUNSCR =        1    unscreen: 0-lin 1-nonlin 2-no                           
   RPACOR =    1.200    partial core radius                                     
   POMASS =   16.000; ZVAL   =    6.000    mass and valenz                      
   RCORE  =    1.520    outmost cutoff radius                                   
   RWIGS  =    1.550; RWIGS  =    0.820    wigner-seitz radius (au A)           
   ENMAX  =  400.000; ENMIN  =  300.000 eV                                      
   ICORE  =        2    local potential                                         
   LCOR   =        T    correct aug charges                                     
   LPAW   =        T    paw PP                                                  
   EAUG   =  605.392                                                            
   DEXC   =    0.000                                                            
   RMAX   =    1.553    core radius for proj-oper                               
   RAUG   =    1.300    factor for augmentation sphere                          
   RDEP   =    1.550    radius for radial grids                                 
   RDEPT  =    1.329    core radius for aug-charge                              
                                                                                
   Atomic configuration                                                         
    4 entries                                                                   
     n  l   j            E        occ.                                          
     1  0  0.50      -514.6923   2.0000                                         
     2  0  0.50       -23.9615   2.0000                                         
     2  1  0.50        -9.0305   4.0000                                         
     3  2  1.50        -9.5241   0.0000                                         
   Description                                                                  
     l       E           TYP  RCUT    TYP  RCUT                                 
     0    -23.9615318     23  1.200                                             
     0     -9.5240782     23  1.200                                             
     1     -9.0304911     23  1.520                                             
     1      8.1634956     23  1.520                                             
     2     -9.5240782      7  1.500                                             
  local pseudopotential read in
  partial core-charges read in
  partial kinetic energy density read in
  kinetic energy density of atom read in
  atomic valenz-charges read in
  non local Contribution for L=           0  read in
    real space projection operators read in
  non local Contribution for L=           0  read in
    real space projection operators read in
  non local Contribution for L=           1  read in
    real space projection operators read in
  non local Contribution for L=           1  read in
    real space projection operators read in
    PAW grid and wavefunctions read in
 
   number of l-projection  operators is LMAX  =           4
   number of lm-projection operators is LMMAX =           8
 
 Optimization of the real space projectors (new method)

 maximal supplied QI-value         = 25.13
 optimisation between [QCUT,QGAM] = [ 12.32, 24.88] = [ 42.47,173.37] Ry 
 Optimized for a Real-space Cutoff    1.06 Angstroem

   l    n(q)    QCUT    max X(q) W(low)/X(q) W(high)/X(q)  e(spline) 
   0      8    12.315   115.676    0.34E-03    0.18E-03    0.23E-06
   0      8    12.315    87.132    0.34E-03    0.18E-03    0.22E-06
   1      7    12.315     4.429    0.45E-03    0.12E-03    0.18E-06
   1      7    12.315     2.733    0.35E-03    0.97E-04    0.15E-06
 Optimization of the real space projectors (new method)

 maximal supplied QI-value         = 16.25
 optimisation between [QCUT,QGAM] = [ 12.51, 25.03] = [ 43.85,175.40] Ry 
 Optimized for a Real-space Cutoff    1.31 Angstroem

   l    n(q)    QCUT    max X(q) W(low)/X(q) W(high)/X(q)  e(spline) 
   2      9    12.514    46.356    0.36E-03    0.54E-03    0.48E-06
   2      9    12.514    41.843    0.37E-03    0.56E-03    0.49E-06
   0     10    12.514    48.958    0.13E-03    0.28E-03    0.23E-06
   0     10    12.514    32.776    0.12E-03    0.26E-03    0.22E-06
   1      9    12.514    17.787    0.44E-03    0.44E-04    0.36E-06
   1      9    12.514    14.435    0.39E-03    0.39E-04    0.32E-06
 Optimization of the real space projectors (new method)

 maximal supplied QI-value         = 34.20
 optimisation between [QCUT,QGAM] = [ 12.31, 24.97] = [ 42.46,174.58] Ry 
 Optimized for a Real-space Cutoff    1.00 Angstroem

   l    n(q)    QCUT    max X(q) W(low)/X(q) W(high)/X(q)  e(spline) 
   0      7    12.313    19.460    0.14E-03    0.42E-03    0.16E-06
   0      7    12.313    12.209    0.12E-03    0.40E-03    0.16E-06
   1      7    12.313     4.655    0.33E-03    0.59E-03    0.89E-07
 Optimization of the real space projectors (new method)

 maximal supplied QI-value         = 25.13
 optimisation between [QCUT,QGAM] = [ 12.32, 24.88] = [ 42.47,173.37] Ry 
 Optimized for a Real-space Cutoff    1.20 Angstroem

   l    n(q)    QCUT    max X(q) W(low)/X(q) W(high)/X(q)  e(spline) 
   0      9    12.315    79.467    0.14E-03    0.22E-04    0.37E-06
   0      9    12.315    66.151    0.14E-03    0.23E-04    0.36E-06
   1      8    12.315    22.077    0.30E-03    0.54E-03    0.45E-06
   1      8    12.315    15.894    0.30E-03    0.55E-03    0.45E-06
 Optimization of the real space projectors (new method)

 maximal supplied QI-value         = 24.76
 optimisation between [QCUT,QGAM] = [ 12.38, 25.00] = [ 42.90,175.06] Ry 
 Optimized for a Real-space Cutoff    1.13 Angstroem

   l    n(q)    QCUT    max X(q) W(low)/X(q) W(high)/X(q)  e(spline) 
   0      8    12.378    20.381    0.16E-03    0.54E-05    0.27E-06
   0      8    12.378    15.268    0.17E-03    0.61E-05    0.29E-06
   1      8    12.378     5.964    0.38E-03    0.23E-03    0.28E-06
   1      8    12.378     5.382    0.33E-03    0.20E-03    0.25E-06
  PAW_PBE C 08Apr2002                   :
 energy of atom  1       EATOM= -147.1560
 kinetic energy error for atom=    0.0057 (will be added to EATOM!!)
  PAW_PBE Zn 06Sep2000                  :
 energy of atom  2       EATOM=-1748.8345
 kinetic energy error for atom=    0.0020 (will be added to EATOM!!)
  PAW_PBE H 15Jun2001                   :
 energy of atom  3       EATOM=  -12.4884
 kinetic energy error for atom=    0.0004 (will be added to EATOM!!)
  PAW_PBE N 08Apr2002                   :
 energy of atom  4       EATOM= -264.5486
 kinetic energy error for atom=    0.0103 (will be added to EATOM!!)
  PAW_PBE O 08Apr2002                   :
 energy of atom  5       EATOM= -432.3788
 kinetic energy error for atom=    0.0168 (will be added to EATOM!!)
 
 
 POSCAR: Zn_H
  positions in direct lattice
  velocities in cartesian coordinates
 exchange correlation table for  LEXCH =        8
   RHO(1)=    0.500       N(1)  =     2000
   RHO(2)=  100.500       N(2)  =     4000
 


--------------------------------------------------------------------------------------------------------


 ion  position               nearest neighbor table
   1  0.937  0.969  0.158- 107 1.09 117 1.34  65 1.40
   2  0.892  0.955  0.429- 112 1.09 118 1.35  65 1.40
   3  0.937  0.786  0.886- 116 1.09 119 1.34  66 1.40
   4  0.563  0.470  0.659- 110 1.09 120 1.34  67 1.40
   5  0.608  0.301  0.116- 111 1.09 121 1.35  68 1.40
   6  0.108  0.801  0.116- 115 1.09 122 1.35  69 1.40
   7  0.608  0.455  0.930- 101 1.09 123 1.35  67 1.40
   8  0.563  0.286  0.387- 113 1.09 124 1.34  68 1.40
   9  0.392  0.455  0.430- 114 1.09 125 1.35  70 1.40
  10  0.063  0.786  0.386- 104 1.09 126 1.34  69 1.40
  11  0.108  0.955  0.929- 105 1.09 127 1.35  71 1.40
  12  0.392  0.301  0.617- 102 1.09 128 1.35  72 1.40
  13  0.892  0.801  0.616- 108 1.09 129 1.35  66 1.40
  14  0.063  0.969  0.658- 109 1.09 130 1.34  71 1.40
  15  0.437  0.286  0.887- 106 1.09 131 1.34  72 1.40
  16  0.437  0.470  0.159- 103 1.09 132 1.34  70 1.40
  17  0.819  0.018  0.094- 141 1.23 133 1.42  33 1.48
  18  0.841  0.071  0.477- 142 1.23 133 1.42  34 1.48
  19  0.840  0.685  0.567- 143 1.23 134 1.42  35 1.48
  20  0.659  0.571  0.978- 144 1.23 135 1.42  36 1.48
  21  0.659  0.185  0.067- 145 1.23 136 1.42  37 1.48
  22  0.181  0.738  0.450- 146 1.23 137 1.42  38 1.48
  23  0.681  0.518  0.595- 147 1.23 135 1.42  39 1.48
  24  0.681  0.238  0.450- 148 1.23 136 1.42  40 1.48
  25  0.319  0.518  0.095- 149 1.23 138 1.42  41 1.48
  26  0.159  0.685  0.067- 150 1.23 137 1.42  42 1.48
  27  0.159  0.071  0.977- 151 1.23 139 1.42  43 1.48
  28  0.341  0.185  0.568- 152 1.23 140 1.42  44 1.48
  29  0.819  0.738  0.950- 153 1.23 134 1.42  45 1.48
  30  0.181  0.018  0.595- 154 1.23 139 1.42  46 1.48
  31  0.319  0.238  0.950- 155 1.23 140 1.42  47 1.48
  32  0.341  0.571  0.478- 156 1.23 138 1.42  48 1.48
  33  0.777  0.061  0.093-  49 1.39  73 1.42  17 1.48
  34  0.800  0.114  0.465-  50 1.39  73 1.42  18 1.48
  35  0.800  0.642  0.579-  51 1.39  74 1.42  19 1.48
  36  0.699  0.614  0.965-  52 1.39  75 1.42  20 1.48
  37  0.700  0.142  0.079-  53 1.39  76 1.41  21 1.48
  38  0.222  0.695  0.452-  54 1.39  77 1.42  22 1.48
  39  0.722  0.561  0.593-  55 1.39  75 1.42  23 1.48
  40  0.723  0.195  0.452-  56 1.39  76 1.42  24 1.48
  41  0.277  0.561  0.093-  57 1.39  78 1.42  25 1.48
  42  0.200  0.642  0.079-  58 1.39  77 1.42  26 1.48
  43  0.199  0.114  0.965-  59 1.39  79 1.42  27 1.48
  44  0.300  0.142  0.579-  60 1.39  80 1.42  28 1.48
  45  0.777  0.695  0.951-  61 1.39  74 1.42  29 1.48
  46  0.222  0.061  0.593-  62 1.39  79 1.42  30 1.48
  47  0.277  0.195  0.952-  63 1.39  80 1.42  31 1.48
  48  0.300  0.614  0.466-  64 1.39  78 1.42  32 1.48
  49  0.746  0.055  0.909-  88 1.09  33 1.39  53 1.40
  50  0.793  0.160  0.642-  99 1.09  34 1.39  56 1.40
  51  0.792  0.596  0.402-  93 1.09  35 1.39  55 1.40
  52  0.707  0.660  0.142-  90 1.09  36 1.39  61 1.40
  53  0.708  0.096  0.902-  98 1.09  37 1.39  49 1.40
  54  0.254  0.701  0.635-  96 1.09  38 1.39  64 1.40
  55  0.753  0.555  0.409-  86 1.09  39 1.39  51 1.40
  56  0.754  0.201  0.635-  87 1.09  40 1.39  50 1.40
  57  0.246  0.555  0.910-  95 1.09  41 1.39  58 1.40
  58  0.207  0.596  0.903-  91 1.09  42 1.39  57 1.40
  59  0.207  0.160  0.142-  92 1.09  43 1.39  63 1.40
  60  0.292  0.096  0.403-  85 1.09  44 1.39  62 1.40
  61  0.746  0.701  0.135-  89 1.09  45 1.39  52 1.40
  62  0.254  0.055  0.409- 100 1.09  46 1.39  60 1.40
  63  0.246  0.201  0.135-  94 1.09  47 1.39  59 1.40
  64  0.292  0.660  0.642-  97 1.09  48 1.39  54 1.40
  65  0.889  0.986  0.293-   1 1.40   2 1.40 133 1.42
  66  0.889  0.770  0.752-   3 1.40  13 1.40 134 1.42
  67  0.610  0.486  0.793-   4 1.40   7 1.40 135 1.42
  68  0.610  0.270  0.252-   8 1.40   5 1.40 136 1.42
  69  0.110  0.770  0.252-  10 1.40   6 1.40 137 1.42
  70  0.389  0.486  0.294-  16 1.40   9 1.40 138 1.42
  71  0.110  0.986  0.793-  14 1.40  11 1.40 139 1.42
  72  0.389  0.270  0.753-  15 1.40  12 1.40 140 1.42
  73  0.770  0.107  0.275-  34 1.42  33 1.42  76 1.43
  74  0.769  0.649  0.769-  35 1.42  45 1.42  75 1.43
  75  0.730  0.607  0.776-  36 1.42  39 1.42  74 1.43
  76  0.730  0.149  0.269-  37 1.41  40 1.42  73 1.43
  77  0.230  0.648  0.269-  42 1.42  38 1.42  78 1.43
  78  0.270  0.607  0.276-  48 1.42  41 1.42  77 1.43
  79  0.230  0.107  0.776-  43 1.42  46 1.42  80 1.43
  80  0.269  0.149  0.769-  44 1.42  47 1.42  79 1.43
  81  0.022  0.878  0.022- 122 1.97 127 1.97 117 2.03 119 2.03
  82  0.978  0.878  0.523- 129 1.97 118 1.97 130 2.02 126 2.03
  83  0.478  0.378  0.523- 128 1.97 125 1.97 120 2.02 124 2.03
  84  0.522  0.378  0.023- 121 1.97 123 1.97 132 2.03 131 2.03
  85  0.317  0.092  0.259-  60 1.09
  86  0.747  0.519  0.271-  55 1.09
  87  0.747  0.237  0.773-  56 1.09
  88  0.753  0.019  0.771-  49 1.09
  89  0.753  0.737  0.273-  61 1.09
  90  0.683  0.664  0.286-  52 1.09
  91  0.183  0.592  0.759-  58 1.09
  92  0.183  0.164  0.286-  59 1.09
  93  0.816  0.592  0.259-  51 1.09
  94  0.253  0.237  0.274-  63 1.09
  95  0.253  0.519  0.772-  57 1.09
  96  0.247  0.737  0.774-  54 1.09
  97  0.317  0.664  0.786-  64 1.09
  98  0.683  0.092  0.759-  53 1.09
  99  0.817  0.164  0.785-  50 1.09
 100  0.247  0.019  0.271-  62 1.09
 101  0.635  0.455  0.062-   7 1.09
 102  0.364  0.300  0.484-  12 1.09
 103  0.451  0.483  0.029-  16 1.09
 104  0.049  0.773  0.516-  10 1.09
 105  0.136  0.955  0.061-  11 1.09
 106  0.451  0.273  0.018-  15 1.09
 107  0.951  0.983  0.028-   1 1.09
 108  0.864  0.801  0.483-  13 1.09
 109  0.049  0.983  0.528-  14 1.09
 110  0.549  0.483  0.529-   4 1.09
 111  0.635  0.300  0.984-   5 1.09
 112  0.864  0.955  0.561-   2 1.09
 113  0.549  0.273  0.517-   8 1.09
 114  0.364  0.455  0.562-   9 1.09
 115  0.135  0.800  0.983-   6 1.09
 116  0.950  0.773  0.016-   3 1.09
 117  0.965  0.931  0.211-   1 1.34 118 1.37  81 2.03
 118  0.938  0.922  0.376-   2 1.35 117 1.37  82 1.97
 119  0.965  0.825  0.834-   3 1.34 129 1.37  81 2.03
 120  0.534  0.431  0.712-   4 1.34 123 1.37  83 2.02
 121  0.562  0.334  0.170-   5 1.35 124 1.37  84 1.97
 122  0.062  0.834  0.169-   6 1.35 126 1.37  81 1.97
 123  0.562  0.422  0.877-   7 1.35 120 1.37  84 1.97
 124  0.534  0.325  0.334-   8 1.34 121 1.37  83 2.03
 125  0.437  0.422  0.377-   9 1.35 132 1.37  83 1.97
 126  0.034  0.825  0.333-  10 1.34 122 1.37  82 2.03
 127  0.062  0.922  0.876-  11 1.35 130 1.37  81 1.97
 128  0.438  0.334  0.670-  12 1.35 131 1.37  83 1.97
 129  0.937  0.834  0.669-  13 1.35 119 1.37  82 1.97
 130  0.034  0.931  0.711-  14 1.34 127 1.37  82 2.02
 131  0.465  0.325  0.835-  15 1.34 128 1.37  84 2.03
 132  0.465  0.431  0.212-  16 1.34 125 1.37  84 2.03
 133  0.848  0.026  0.289-  18 1.42  17 1.42  65 1.42
 134  0.848  0.730  0.756-  19 1.42  29 1.42  66 1.42
 135  0.651  0.526  0.789-  20 1.42  23 1.42  67 1.42
 136  0.652  0.230  0.256-  21 1.42  24 1.42  68 1.42
 137  0.151  0.730  0.256-  26 1.42  22 1.42  69 1.42
 138  0.348  0.526  0.290-  32 1.42  25 1.42  70 1.42
 139  0.152  0.026  0.789-  27 1.42  30 1.42  71 1.42
 140  0.348  0.230  0.756-  28 1.42  31 1.42  72 1.42
 141  0.828  0.978  0.937-  17 1.23
 142  0.866  0.074  0.641-  18 1.23
 143  0.866  0.682  0.402-  19 1.23
 144  0.633  0.574  0.142-  20 1.23
 145  0.634  0.182  0.903-  21 1.23
 146  0.172  0.778  0.607-  22 1.23
 147  0.672  0.478  0.438-  23 1.23
 148  0.672  0.278  0.608-  24 1.23
 149  0.328  0.478  0.938-  25 1.23
 150  0.133  0.682  0.903-  26 1.23
 151  0.134  0.074  0.142-  27 1.23
 152  0.366  0.182  0.403-  28 1.23
 153  0.828  0.778  0.107-  29 1.23
 154  0.172  0.978  0.437-  30 1.23
 155  0.328  0.278  0.108-  31 1.23
 156  0.366  0.574  0.642-  32 1.23
 

IMPORTANT INFORMATION: All symmetrisations will be switched off!
NOSYMM: (Re-)initialisation of all symmetry stuff for point group C_1.


----------------------------------------------------------------------------------------

                                     Primitive cell                                     

  volume of cell :    3831.3334

  direct lattice vectors                    reciprocal lattice vectors
    23.472021629 -0.001500846 -0.000082947     0.042603914 -0.000004295 -0.000007404
     0.001627271 25.422142195 -5.383944868     0.000002606  0.040461329  0.005314630
     0.001060345 -0.867506071  6.604494673     0.000002659  0.032983836  0.155744493

  length of vectors
    23.472021677 25.985999669  6.661224947     0.042603915  0.040808877  0.159198871

  position of ions in fractional coordinates (direct lattice)
     0.936728470  0.969435081  0.158394587
     0.891698204  0.954687786  0.428815104
     0.936566844  0.786196742  0.886027591
     0.563081755  0.469567952  0.659272223
     0.608126424  0.301100305  0.116342606
     0.108066138  0.800894462  0.115685583
     0.608135068  0.454797702  0.929551444
     0.563212859  0.286251256  0.386794705
     0.391618252  0.454694752  0.429727242
     0.063030408  0.786078650  0.385965411
     0.108211338  0.954578801  0.928717453
     0.391729384  0.301090759  0.616634226
     0.891621614  0.801128273  0.615850111
     0.063223636  0.969383090  0.658373746
     0.436649066  0.286295196  0.887136063
     0.436644522  0.469546373  0.159496083
     0.819104180  0.017890244  0.094490953
     0.840730739  0.070846347  0.477212666
     0.840337327  0.685044669  0.566838925
     0.659098606  0.570955813  0.977733035
     0.659378299  0.185004452  0.067207376
     0.180736349  0.737808069  0.449966972
     0.680708593  0.517945453  0.595010482
     0.680959194  0.237926126  0.450076845
     0.318972565  0.517817677  0.095424150
     0.159143616  0.684746164  0.067220284
     0.159194044  0.070750999  0.977403820
     0.340516157  0.185025047  0.567520107
     0.818762770  0.738018911  0.949688177
     0.180840828  0.017842040  0.594594922
     0.318942112  0.237879490  0.950485401
     0.340539725  0.570854432  0.478150261
     0.777460799  0.060667249  0.092677864
     0.800418532  0.113645911  0.465028794
     0.799932358  0.642312185  0.579017928
     0.699372817  0.613755290  0.965300753
     0.699798675  0.142263248  0.079181822
     0.222450778  0.695097268  0.451893204
     0.722318399  0.560722021  0.592962804
     0.722720047  0.195218310  0.451647618
     0.277292559  0.560539408  0.093422373
     0.199564762  0.642035226  0.079491440
     0.199493891  0.113569460  0.965274617
     0.300118084  0.142259662  0.579473964
     0.777018366  0.695320975  0.951457770
     0.222476747  0.060630572  0.592847895
     0.277192399  0.195157077  0.952000788
     0.300186169  0.613601961  0.465770976
     0.746363716  0.055131067  0.909127221
     0.792568777  0.160152129  0.641793618
     0.792042941  0.595793727  0.402341036
     0.707226273  0.660282704  0.141958743
     0.707694353  0.095769552  0.902376615
     0.253562233  0.700706379  0.635493336
     0.753397344  0.555156893  0.409318865
     0.753871023  0.200775145  0.635113226
     0.246198142  0.554923409  0.909802172
     0.207492813  0.595511816  0.902834106
     0.207336721  0.160061330  0.142086836
     0.292223923  0.095788562  0.402595395
     0.745895385  0.700903878  0.135039675
     0.253570314  0.055132800  0.409289544
     0.246035798  0.200690408  0.135471255
     0.292273391  0.660119011  0.642440745
     0.889494357  0.985665224  0.292652757
     0.889338421  0.770072470  0.751692946
     0.610330412  0.485774933  0.793389250
     0.610406951  0.270058282  0.252252893
     0.110265738  0.769871882  0.251677787
     0.389391830  0.485704937  0.293696084
     0.110441630  0.985584865  0.792661393
     0.389462779  0.270073802  0.752638360
     0.769732316  0.107325358  0.275463869
     0.769267949  0.648664441  0.768678601
     0.730033095  0.607408794  0.775626070
     0.730472919  0.148584375  0.268752324
     0.230230013  0.648428490  0.269153518
     0.269522392  0.607217852  0.276107753
     0.230190691  0.107269729  0.775712453
     0.269445723  0.148539736  0.769058467
     0.022065740  0.877791977  0.022421249
     0.977781471  0.877858258  0.522534382
     0.477785471  0.377945832  0.523414695
     0.522058703  0.378005210  0.023451841
     0.316580019  0.091907669  0.258993493
     0.746750083  0.518751618  0.271138072
     0.747201339  0.237144882  0.773430353
     0.753016454  0.018751786  0.770834157
     0.752552591  0.737296929  0.273262163
     0.682854824  0.664204352  0.285559869
     0.183134463  0.591547293  0.759191354
     0.182944372  0.163942396  0.285608588
     0.816394282  0.591853611  0.258675212
     0.252696030  0.237043936  0.273847647
     0.252885859  0.518523661  0.771623932
     0.246867629  0.737096530  0.773703639
     0.316631354  0.664061475  0.786059425
     0.683325210  0.091856881  0.758802412
     0.816953157  0.164051165  0.785315831
     0.246919550  0.018771807  0.270932953
     0.635487692  0.455423888  0.061913859
     0.364441703  0.300462334  0.484092676
     0.450593656  0.482758635  0.029131483
     0.049064025  0.772860017  0.516295899
     0.135545640  0.955180838  0.061100614
     0.450556837  0.273087011  0.017547719
     0.950689713  0.982613163  0.027961121
     0.864314148  0.800571024  0.483447298
     0.049277988  0.982586547  0.527998327
     0.549106098  0.482751703  0.528878561
     0.635410425  0.300496697  0.983788326
     0.864347224  0.955316920  0.561221534
     0.549307482  0.273015703  0.517154394
     0.364257648  0.455268480  0.562038050
     0.135399193  0.800272807  0.983238686
     0.950473639  0.772936202  0.016311133
     0.965467373  0.931054420  0.211194898
     0.937521588  0.921673427  0.376001548
     0.965370011  0.824599557  0.833564485
     0.534345260  0.431194249  0.712133703
     0.562316317  0.334116947  0.169578119
     0.062254898  0.833913923  0.168651971
     0.562303937  0.421800591  0.876851124
     0.534438181  0.324684062  0.334417538
     0.437475096  0.421726537  0.376897172
     0.034303785  0.824502161  0.333382777
     0.062382909  0.921578217  0.875838473
     0.437531046  0.334112169  0.669745329
     0.937471829  0.834084549  0.668909160
     0.034465715  0.930995892  0.711080883
     0.465414172  0.324712113  0.834606831
     0.465418499  0.431174789  0.212227399
     0.848423007  0.025655021  0.288595164
     0.848144713  0.730173225  0.755586232
     0.651397965  0.525750186  0.789194452
     0.651573986  0.230120534  0.256037814
     0.151389859  0.729936553  0.255805883
     0.348276387  0.525650226  0.289602760
     0.151514611  0.025581158  0.788706161
     0.348318731  0.230116348  0.756424477
     0.828161056  0.977585727  0.937177028
     0.866397980  0.073836362  0.641484045
     0.866003802  0.682025251  0.402485244
     0.633471424  0.573951619  0.142123485
     0.633699414  0.182012493  0.902944009
     0.171631053  0.778133881  0.607167248
     0.671666567  0.477605330  0.437833932
     0.671837956  0.278191701  0.607509653
     0.328087328  0.477507441  0.938200689
     0.133441806  0.681684402  0.902929236
     0.133534439  0.073698449  0.141675088
     0.366172633  0.182069187  0.403228696
     0.827890585  0.778297639  0.107035344
     0.171796603  0.977551636  0.437236448
     0.328055763  0.278120667  0.107980107
     0.366192214  0.573890674  0.642497028

  ion indices of the primitive-cell ions
   primitive index   ion index
                 1           1
                 2           2
                 3           3
                 4           4
                 5           5
                 6           6
                 7           7
                 8           8
                 9           9
                10          10
                11          11
                12          12
                13          13
                14          14
                15          15
                16          16
                17          17
                18          18
                19          19
                20          20
                21          21
                22          22
                23          23
                24          24
                25          25
                26          26
                27          27
                28          28
                29          29
                30          30
                31          31
                32          32
                33          33
                34          34
                35          35
                36          36
                37          37
                38          38
                39          39
                40          40
                41          41
                42          42
                43          43
                44          44
                45          45
                46          46
                47          47
                48          48
                49          49
                50          50
                51          51
                52          52
                53          53
                54          54
                55          55
                56          56
                57          57
                58          58
                59          59
                60          60
                61          61
                62          62
                63          63
                64          64
                65          65
                66          66
                67          67
                68          68
                69          69
                70          70
                71          71
                72          72
                73          73
                74          74
                75          75
                76          76
                77          77
                78          78
                79          79
                80          80
                81          81
                82          82
                83          83
                84          84
                85          85
                86          86
                87          87
                88          88
                89          89
                90          90
                91          91
                92          92
                93          93
                94          94
                95          95
                96          96
                97          97
                98          98
                99          99
               100         100
               101         101
               102         102
               103         103
               104         104
               105         105
               106         106
               107         107
               108         108
               109         109
               110         110
               111         111
               112         112
               113         113
               114         114
               115         115
               116         116
               117         117
               118         118
               119         119
               120         120
               121         121
               122         122
               123         123
               124         124
               125         125
               126         126
               127         127
               128         128
               129         129
               130         130
               131         131
               132         132
               133         133
               134         134
               135         135
               136         136
               137         137
               138         138
               139         139
               140         140
               141         141
               142         142
               143         143
               144         144
               145         145
               146         146
               147         147
               148         148
               149         149
               150         150
               151         151
               152         152
               153         153
               154         154
               155         155
               156         156

----------------------------------------------------------------------------------------

 
 

Automatic generation of k-mesh.
 generate k-points for:    1    1    4
Space group operators:
 irot       det(A)        alpha          n_x          n_y          n_z        tau_x        tau_y        tau_z
    1     1.000000     0.000000     1.000000     0.000000     0.000000     0.000000     0.000000     0.000000
 
 Subroutine IBZKPT returns following result:
 ===========================================
 
 Found      3 irreducible k-points:
 
 Following reciprocal coordinates:
            Coordinates               Weight
  0.000000  0.000000  0.000000      1.000000
 -0.000000 -0.000000  0.250000      2.000000
 -0.000000 -0.000000  0.500000      1.000000
 
 Following cartesian coordinates:
            Coordinates               Weight
  0.000000  0.000000  0.000000      1.000000
  0.000001  0.008246  0.038936      2.000000
  0.000001  0.016492  0.077872      1.000000
 


--------------------------------------------------------------------------------------------------------




 Dimension of arrays:
   k-points           NKPTS =      3   k-points in BZ     NKDIM =      3   number of bands    NBANDS=    400
   number of dos      NEDOS =    301   number of ions     NIONS =    156
   non local maximal  LDIM  =      6   non local SUM 2l+1 LMDIM =     18
   total plane-waves  NPLWV = 921600
   max r-space proj   IRMAX =   2298   max aug-charges    IRDMAX=   7368
   dimension x,y,z NGX =   144 NGY =  160 NGZ =   40
   dimension x,y,z NGXF=   288 NGYF=  320 NGZF=   80
   support grid    NGXF=   288 NGYF=  320 NGZF=   80
   ions per type =              80   4  32  24  16
   NGX,Y,Z   is equivalent  to a cutoff of  10.20, 10.24,  9.98 a.u.
   NGXF,Y,Z  is equivalent  to a cutoff of  20.40, 20.47, 19.97 a.u.

 SYSTEM =  flex_MOF                                
 POSCAR =  Zn_H                                    

 Startparameter for this run:
   NWRITE =      2    write-flag & timer
   PREC   = normal    normal or accurate (medium, high low for compatibility)
   ISTART =      0    job   : 0-new  1-cont  2-samecut
   ICHARG =      2    charge: 1-file 2-atom 10-const
   ISPIN  =      1    spin polarized calculation?
   LNONCOLLINEAR =      F non collinear calculations
   LSORBIT =      F    spin-orbit coupling
   INIWAV =      1    electr: 0-lowe 1-rand  2-diag
   LASPH  =      F    aspherical Exc in radial PAW
   METAGGA=      F    non-selfconsistent MetaGGA calc.

 Electronic Relaxation 1
   ENCUT  =  600.0 eV  44.10 Ry    6.64 a.u.  46.88 51.90 13.30*2*pi/ulx,y,z
   ENINI  =  600.0     initial cutoff
   ENAUG  =  644.9 eV  augmentation charge cutoff
   NELM   =     80;   NELMIN=  4; NELMDL=-12     # of ELM steps 
   EDIFF  = 0.1E-05   stopping-criterion for ELM
   LREAL  =      T    real-space projection
   NLSPLINE    = F    spline interpolate recip. space projectors
   LCOMPAT=      F    compatible to vasp.4.4
   GGA_COMPAT  = T    GGA compatible to vasp.4.4-vasp.4.6
   LMAXPAW     = -100 max onsite density
   LMAXMIX     =    2 max onsite mixed and CHGCAR
   VOSKOWN=      0    Vosko Wilk Nusair interpolation
   ROPT   =   -0.00050  -0.00050  -0.00050  -0.00050
   ROPT   =   -0.00050
 Ionic relaxation
   EDIFFG = -.1E-01   stopping-criterion for IOM
   NSW    =   1000    number of steps for IOM
   NBLOCK =      1;   KBLOCK =   1000    inner block; outer block 
   IBRION =      1    ionic relax: 0-MD 1-quasi-New 2-CG
   NFREE  =      0    steps in history (QN), initial steepest desc. (CG)
   ISIF   =      4    stress and relaxation
   IWAVPR =     11    prediction:  0-non 1-charg 2-wave 3-comb
   ISYM   =      0    0-nonsym 1-usesym 2-fastsym
   LCORR  =      T    Harris-Foulkes like correction to forces

   POTIM  = 0.5000    time-step for ionic-motion
   TEIN   =    0.0    initial temperature
   TEBEG  =    0.0;   TEEND  =   0.0 temperature during run
   SMASS  =  -3.00    Nose mass-parameter (am)
   estimated Nose-frequenzy (Omega)   =  0.10E-29 period in steps = 0.13E+47 mass=  -0.126E-25a.u.
   SCALEE = 1.0000    scale energy and forces
   NPACO  =    256;   APACO  = 16.0  distance and # of slots for P.C.
   PSTRESS=    0.0 pullay stress

  Mass of Ions in am
   POMASS =  12.01 65.39  1.00 14.00 16.00
  Ionic Valenz
   ZVAL   =   4.00 12.00  1.00  5.00  6.00
  Atomic Wigner-Seitz radii
   RWIGS  =  -1.00 -1.00 -1.00 -1.00 -1.00
  virtual crystal weights 
   VCA    =   1.00  1.00  1.00  1.00  1.00
   NELECT =     616.0000    total number of electrons
   NUPDOWN=      -1.0000    fix difference up-down

 DOS related values:
   EMIN   =  10.00;   EMAX   =-10.00  energy-range for DOS
   EFERMI =   0.00
   ISMEAR =     0;   SIGMA  =   0.05  broadening in eV -4-tet -1-fermi 0-gaus

 Electronic relaxation 2 (details)
   IALGO  =     48    algorithm
   LDIAG  =      T    sub-space diagonalisation (order eigenvalues)
   LSUBROT=      F    optimize rotation matrix (better conditioning)
   TURBO    =      0    0=normal 1=particle mesh
   IRESTART =      0    0=no restart 2=restart with 2 vectors
   NREBOOT  =      0    no. of reboots
   NMIN     =      0    reboot dimension
   EREF     =   0.00    reference energy to select bands
   IMIX   =      4    mixing-type and parameters
     AMIX     =   0.40;   BMIX     =  1.00
     AMIX_MAG =   1.60;   BMIX_MAG =  1.00
     AMIN     =   0.10
     WC   =   100.;   INIMIX=   1;  MIXPRE=   1;  MAXMIX= -45

 Intra band minimization:
   WEIMIN = 0.0010     energy-eigenvalue tresh-hold
   EBREAK =  0.63E-09  absolut break condition
   DEPER  =   0.30     relativ break condition  

   TIME   =   0.40     timestep for ELM

  volume/ion in A,a.u.               =      24.56       165.74
  Fermi-wavevector in a.u.,A,eV,Ry     =   0.890195  1.682224 10.781895  0.792447
  Thomas-Fermi vector in A             =   2.011854
 
 Write flags
   LWAVE        =      T    write WAVECAR
   LDOWNSAMPLE  =      F    k-point downsampling of WAVECAR
   LCHARG       =      T    write CHGCAR
   LVTOT        =      F    write LOCPOT, total local potential
   LVHAR        =      F    write LOCPOT, Hartree potential only
   LELF         =      F    write electronic localiz. function (ELF)
   LORBIT       =      0    0 simple, 1 ext, 2 COOP (PROOUT), +10 PAW based schemes


 Dipole corrections
   LMONO  =      F    monopole corrections only (constant potential shift)
   LDIPOL =      F    correct potential (dipole corrections)
   IDIPOL =      0    1-x, 2-y, 3-z, 4-all directions 
   EPSILON=  1.0000000 bulk dielectric constant

 Exchange correlation treatment:
   GGA     =    PE    GGA type
   LEXCH   =     8    internal setting for exchange type
   VOSKOWN=      0    Vosko Wilk Nusair interpolation
   LHFCALC =     F    Hartree Fock is set to
   LHFONE  =     F    Hartree Fock one center treatment
   AEXX    =    0.0000 exact exchange contribution

 Linear response parameters
   LEPSILON=     F    determine dielectric tensor
   LRPA    =     F    only Hartree local field effects (RPA)
   LNABLA  =     F    use nabla operator in PAW spheres
   LVEL    =     F    velocity operator in full k-point grid
   LINTERFAST=   F  fast interpolation
   KINTER  =     0    interpolate to denser k-point grid
   CSHIFT  =0.1000    complex shift for real part using Kramers Kronig
   OMEGAMAX=  -1.0    maximum frequency
   DEG_THRESHOLD= 0.2000000E-02 threshold for treating states as degnerate
   RTIME   =   -0.100 relaxation time in fs
  (WPLASMAI=    0.000 imaginary part of plasma frequency in eV, 0.658/RTIME)
   DFIELD  = 0.0000000 0.0000000 0.0000000 field for delta impulse in time
 
 Orbital magnetization related:
   ORBITALMAG=     F  switch on orbital magnetization
   LCHIMAG   =     F  perturbation theory with respect to B field
   DQ        =  0.001000  dq finite difference perturbation B field
   LLRAUG    =     F  two centre corrections for induced B field



--------------------------------------------------------------------------------------------------------


 quasi-Newton-method for relaxation of ions
 charge density and potential will be updated during run
 non-spin polarized calculation
 RMM-DIIS sequential band-by-band
 perform sub-space diagonalisation
    before iterative eigenvector-optimisation
 modified Broyden-mixing scheme, WC =      100.0
 initial mixing is a Kerker type mixing with AMIX =  0.4000 and BMIX =      1.0000
 Hartree-type preconditioning will be used
 using additional bands           92
 real space projection scheme for non local part
 use partial core corrections
 calculate Harris-corrections to forces 
   (improved forces if not selfconsistent)
 use gradient corrections 
 use of overlap-Matrix (Vanderbilt PP)
 Gauss-broadening in eV      SIGMA  =   0.05


--------------------------------------------------------------------------------------------------------


  energy-cutoff  :      600.00
  volume of cell :     3831.33
      direct lattice vectors                 reciprocal lattice vectors
    23.472021629 -0.001500846 -0.000082947     0.042603914 -0.000004295 -0.000007404
     0.001627271 25.422142195 -5.383944868     0.000002606  0.040461329  0.005314630
     0.001060345 -0.867506071  6.604494673     0.000002659  0.032983836  0.155744493

  length of vectors
    23.472021677 25.985999669  6.661224947     0.042603915  0.040808877  0.159198871


 
 k-points in units of 2pi/SCALE and weight: read from INCAR                         
   0.00000000  0.00000000  0.00000000       0.250
   0.00000066  0.00824596  0.03893612       0.500
   0.00000133  0.01649192  0.07787225       0.250
 
 k-points in reciprocal lattice and weights: read from INCAR                         
   0.00000000  0.00000000  0.00000000       0.250
  -0.00000000 -0.00000000  0.25000000       0.500
  -0.00000000 -0.00000000  0.50000000       0.250
 
 position of ions in fractional coordinates (direct lattice) 
   0.93672847  0.96943508  0.15839459
   0.89169820  0.95468779  0.42881510
   0.93656684  0.78619674  0.88602759
   0.56308175  0.46956795  0.65927222
   0.60812642  0.30110030  0.11634261
   0.10806614  0.80089446  0.11568558
   0.60813507  0.45479770  0.92955144
   0.56321286  0.28625126  0.38679470
   0.39161825  0.45469475  0.42972724
   0.06303041  0.78607865  0.38596541
   0.10821134  0.95457880  0.92871745
   0.39172938  0.30109076  0.61663423
   0.89162161  0.80112827  0.61585011
   0.06322364  0.96938309  0.65837375
   0.43664907  0.28629520  0.88713606
   0.43664452  0.46954637  0.15949608
   0.81910418  0.01789024  0.09449095
   0.84073074  0.07084635  0.47721267
   0.84033733  0.68504467  0.56683892
   0.65909861  0.57095581  0.97773304
   0.65937830  0.18500445  0.06720738
   0.18073635  0.73780807  0.44996697
   0.68070859  0.51794545  0.59501048
   0.68095919  0.23792613  0.45007685
   0.31897257  0.51781768  0.09542415
   0.15914362  0.68474616  0.06722028
   0.15919404  0.07075100  0.97740382
   0.34051616  0.18502505  0.56752011
   0.81876277  0.73801891  0.94968818
   0.18084083  0.01784204  0.59459492
   0.31894211  0.23787949  0.95048540
   0.34053972  0.57085443  0.47815026
   0.77746080  0.06066725  0.09267786
   0.80041853  0.11364591  0.46502879
   0.79993236  0.64231219  0.57901793
   0.69937282  0.61375529  0.96530075
   0.69979868  0.14226325  0.07918182
   0.22245078  0.69509727  0.45189320
   0.72231840  0.56072202  0.59296280
   0.72272005  0.19521831  0.45164762
   0.27729256  0.56053941  0.09342237
   0.19956476  0.64203523  0.07949144
   0.19949389  0.11356946  0.96527462
   0.30011808  0.14225966  0.57947396
   0.77701837  0.69532098  0.95145777
   0.22247675  0.06063057  0.59284790
   0.27719240  0.19515708  0.95200079
   0.30018617  0.61360196  0.46577098
   0.74636372  0.05513107  0.90912722
   0.79256878  0.16015213  0.64179362
   0.79204294  0.59579373  0.40234104
   0.70722627  0.66028270  0.14195874
   0.70769435  0.09576955  0.90237662
   0.25356223  0.70070638  0.63549334
   0.75339734  0.55515689  0.40931887
   0.75387102  0.20077514  0.63511323
   0.24619814  0.55492341  0.90980217
   0.20749281  0.59551182  0.90283411
   0.20733672  0.16006133  0.14208684
   0.29222392  0.09578856  0.40259539
   0.74589538  0.70090388  0.13503967
   0.25357031  0.05513280  0.40928954
   0.24603580  0.20069041  0.13547125
   0.29227339  0.66011901  0.64244074
   0.88949436  0.98566522  0.29265276
   0.88933842  0.77007247  0.75169295
   0.61033041  0.48577493  0.79338925
   0.61040695  0.27005828  0.25225289
   0.11026574  0.76987188  0.25167779
   0.38939183  0.48570494  0.29369608
   0.11044163  0.98558486  0.79266139
   0.38946278  0.27007380  0.75263836
   0.76973232  0.10732536  0.27546387
   0.76926795  0.64866444  0.76867860
   0.73003310  0.60740879  0.77562607
   0.73047292  0.14858437  0.26875232
   0.23023001  0.64842849  0.26915352
   0.26952239  0.60721785  0.27610775
   0.23019069  0.10726973  0.77571245
   0.26944572  0.14853974  0.76905847
   0.02206574  0.87779198  0.02242125
   0.97778147  0.87785826  0.52253438
   0.47778547  0.37794583  0.52341470
   0.52205870  0.37800521  0.02345184
   0.31658002  0.09190767  0.25899349
   0.74675008  0.51875162  0.27113807
   0.74720134  0.23714488  0.77343035
   0.75301645  0.01875179  0.77083416
   0.75255259  0.73729693  0.27326216
   0.68285482  0.66420435  0.28555987
   0.18313446  0.59154729  0.75919135
   0.18294437  0.16394240  0.28560859
   0.81639428  0.59185361  0.25867521
   0.25269603  0.23704394  0.27384765
   0.25288586  0.51852366  0.77162393
   0.24686763  0.73709653  0.77370364
   0.31663135  0.66406148  0.78605943
   0.68332521  0.09185688  0.75880241
   0.81695316  0.16405116  0.78531583
   0.24691955  0.01877181  0.27093295
   0.63548769  0.45542389  0.06191386
   0.36444170  0.30046233  0.48409268
   0.45059366  0.48275864  0.02913148
   0.04906402  0.77286002  0.51629590
   0.13554564  0.95518084  0.06110061
   0.45055684  0.27308701  0.01754772
   0.95068971  0.98261316  0.02796112
   0.86431415  0.80057102  0.48344730
   0.04927799  0.98258655  0.52799833
   0.54910610  0.48275170  0.52887856
   0.63541042  0.30049670  0.98378833
   0.86434722  0.95531692  0.56122153
   0.54930748  0.27301570  0.51715439
   0.36425765  0.45526848  0.56203805
   0.13539919  0.80027281  0.98323869
   0.95047364  0.77293620  0.01631113
   0.96546737  0.93105442  0.21119490
   0.93752159  0.92167343  0.37600155
   0.96537001  0.82459956  0.83356449
   0.53434526  0.43119425  0.71213370
   0.56231632  0.33411695  0.16957812
   0.06225490  0.83391392  0.16865197
   0.56230394  0.42180059  0.87685112
   0.53443818  0.32468406  0.33441754
   0.43747510  0.42172654  0.37689717
   0.03430379  0.82450216  0.33338278
   0.06238291  0.92157822  0.87583847
   0.43753105  0.33411217  0.66974533
   0.93747183  0.83408455  0.66890916
   0.03446572  0.93099589  0.71108088
   0.46541417  0.32471211  0.83460683
   0.46541850  0.43117479  0.21222740
   0.84842301  0.02565502  0.28859516
   0.84814471  0.73017323  0.75558623
   0.65139797  0.52575019  0.78919445
   0.65157399  0.23012053  0.25603781
   0.15138986  0.72993655  0.25580588
   0.34827639  0.52565023  0.28960276
   0.15151461  0.02558116  0.78870616
   0.34831873  0.23011635  0.75642448
   0.82816106  0.97758573  0.93717703
   0.86639798  0.07383636  0.64148404
   0.86600380  0.68202525  0.40248524
   0.63347142  0.57395162  0.14212349
   0.63369941  0.18201249  0.90294401
   0.17163105  0.77813388  0.60716725
   0.67166657  0.47760533  0.43783393
   0.67183796  0.27819170  0.60750965
   0.32808733  0.47750744  0.93820069
   0.13344181  0.68168440  0.90292924
   0.13353444  0.07369845  0.14167509
   0.36617263  0.18206919  0.40322870
   0.82789059  0.77829764  0.10703534
   0.17179660  0.97755164  0.43723645
   0.32805576  0.27812067  0.10798011
   0.36619221  0.57389067  0.64249703
 
 position of ions in cartesian coordinates  (Angst):
  21.98865640 24.50630232 -4.17334652
  20.93196775 23.89687064 -2.30795330
  21.98533607 19.21676540  1.61884691
  13.21813029 11.36465549  1.82598521
  14.27456992  7.55277413 -0.85277376
   2.53795666 20.25993276 -3.54793577
  14.27588520 10.75462761  3.69056136
  13.22062035  6.94072808  1.01337587
   9.19326766 11.18593589  0.39004732
   1.48113953 19.64888128 -1.68310284
   2.54247699 23.46160757  0.99430086
   9.19582438  7.11885023  2.45146892
  20.93011848 19.83080497 -0.24592563
   1.48626210 24.07255665 -0.87088446
  10.25044286  6.50798591  4.31765163
  10.24986286 11.79785551 -1.47465697
  19.22616033  0.37160749  0.52767697
  19.73427139  1.38581920  2.77024595
  19.72613171 16.92230556  0.05537223
  15.47234256 13.66574131  3.38338333
  15.47731400  4.64391705 -0.55223771
   4.24392524 18.36604131 -1.00052849
  15.97908056 12.65008611  1.14109734
  15.98435333  5.65712539  1.69149250
   7.48787477 13.08077486 -2.15769999
   3.73660794 17.34916149 -3.24269279
   3.73775756  0.95049927  6.07432564
   7.99350546  4.21089486  2.75199062
  19.22022541 17.93693259  2.29868947
   4.24535934 -0.06250324  3.83092344
   7.48761110  5.22237569  4.99671925
   7.99459172 14.09703320  0.08446381
  18.24877368  1.46072598  0.28539684
  18.78811912  2.48450589  2.45935049
  18.77768878 15.82544956  0.36588108
  16.41771619 14.76452034  3.07084102
  16.42600510  3.54689551 -0.24303961
   5.22297974 17.27850763 -0.75785756
  16.95581428 13.73927202  0.89726332
  16.96449715  4.56997590  1.93179972
   6.50962816 14.16865188 -2.40092870
   4.68531746 16.25265198 -2.93169802
   4.68373326  2.04949797  5.76368281
   7.04522409  3.11339774  3.06118964
  18.24033225 16.84998712  2.54026353
   5.22270631  1.02672597  3.58901065
   6.50759302  4.13502848  5.23674620
   7.04746863 15.19456662 -0.22744210
  17.51971899  0.61175626  5.70744135
  18.60413262  3.51346080  3.37640656
  18.59224517 14.79613083 -0.55052705
  16.60125537 16.66158927 -2.61741857
  16.61212983  1.65078782  5.44406486
   5.95343230 17.26178233  0.42452681
  17.68509617 13.75706015 -0.28565233
  17.69587710  4.55203826  3.11357708
   5.78063584 13.31771339  3.02108614
   4.87220216 14.35566059  2.75654304
   4.86702313  3.94552952  0.07663318
   6.85966900  2.08545791  2.14319456
  17.50895635 17.70021085 -2.88182090
   5.95233159  1.04615215  2.40629763
   5.77542778  4.98408870 -0.18580732
   6.86200276 16.22387946  0.68892787
  20.88014504 24.80250845 -3.37401743
  20.87662082 18.92345887  0.81845057
  14.32732038 11.66025343  2.62449899
  14.32819208  6.64571299  0.21197336
   2.58967944 19.35329495 -2.48275231
   9.14091525 12.09229241 -0.67532668
   2.59473263 24.36787425 -0.07121579
   9.14271631  6.21235174  3.51670127
  18.06764031  2.48831869  1.24140200
  18.05814456 15.82245176  1.58429633
  17.13716345 14.76767674  1.85230224
  17.14620291  3.54309251  0.97494262
   5.40530440 16.25060343 -1.71349936
   6.32751629 15.19684890 -1.44569761
   5.40403796  2.05374555  4.54563537
   6.32549302  3.10863100  4.27949045
   0.51937970 22.29586878 -4.57790442
  22.95249041 21.86226822 -1.27534603
  11.21576094  9.15341017  1.42201042
  12.25441315  9.58857405 -1.88031495
   7.43119724  2.11133626  1.21566906
  17.52886576 12.95144273 -1.00226210
  17.53953199  5.35665394  3.83127970
  17.67566635 -0.19312291  4.98994904
  17.66542023 18.50548133 -2.16486994
  16.02936683 16.63674770 -1.69011762
   4.30030368 14.37952143  1.82920205
   4.29464388  3.91972515  1.00362840
  19.16366163 14.82055907 -1.47815587
   5.93196280  5.78822089  0.53237288
   5.93740432 12.51221424  2.30446237
   5.79650217 18.06700969  1.14141401
   7.43389209 16.19947871  1.61622865
  16.03997818  1.67590744  4.51689743
  19.17664183  3.48803966  4.30330403
   5.79601884  0.24181297  1.68828839
  14.91698761 11.52318642 -2.04312007
   8.55518578  7.21789588  1.57948463
  10.57716051 12.24681066 -2.40678453
   1.15343695 19.19979378 -0.75116627
   3.18314931 24.22953450 -4.73911354
  10.57594282  6.92655786 -1.35442897
  22.31623812 24.95444827 -5.10574488
  20.28901573 19.93153974 -1.11737684
   1.15881278 24.52133921 -1.80303375
  12.88997657 11.81295294  0.89382154
  14.91589937  6.78487377  4.87951440
  20.29012638 23.79804224 -1.43686069
  12.89434974  6.49118503  1.94559638
   8.55120020 11.08578193  1.26080670
   3.18043761 19.49148036  2.18515876
  22.31081289 19.63411752 -4.05379795
  22.66321009 23.48473599 -3.61799017
  22.00742550 23.10332223 -2.47901646
  22.66141150 20.23851607  1.06559357
  12.54362027 10.34329923  2.38171286
  13.19942426  8.34601455 -0.67893608
   1.46278414 21.05347829 -3.37589071
  13.20002631  9.96155700  3.52016081
  12.54522750  7.96325305  0.46053343
  10.26951083 10.39357482  0.21862665
   0.80687438 20.67134812 -2.23725225
   1.46668133 22.66860366  0.82273904
  10.27099204  7.91218227  2.62445167
  22.00642561 20.62252625 -0.07293601
   0.81124899 23.05099123 -0.31610351
  10.92562488  7.53015250  3.76388565
  10.92523974 10.77657971 -0.91980517
  19.91455093  0.40057418  1.76782963
  19.90966042 17.90581898  1.05898250
  15.29131948 12.68008736  2.38156651
  15.29440466  5.62706468  0.45199006
   3.55488509 18.33441048 -2.24048213
   8.17591333 13.11139993 -0.91742084
   3.55723215 -0.03410694  5.07126553
   8.17692132  5.19332493  3.75683881
  19.44119874 24.03807365  0.92624434
  20.33691248  1.31928686  3.83907519
  20.32839659 16.98808479 -1.01384653
  14.86993964 14.46683593 -2.15152261
  14.87545997  3.84288697  4.98349111
   4.03043782 19.25485131 -0.17941130
  15.76661364 11.76091895  0.32021540
  15.77049190  6.54420235  2.51446975
   7.70264471 11.32487485  3.62544050
   3.13421566 16.54638094  2.29322902
   3.13459338  1.75046804  0.53889290
   8.59553579  4.27823585  1.68284093
  19.43364572 19.69189691 -3.48346589
   4.03446794 24.47189357 -2.37537257
   7.70069905  6.97625737 -0.78425950
   8.59688671 14.03161065  1.15354207
 


--------------------------------------------------------------------------------------------------------


 k-point  1 :   0.0000 0.0000 0.0000  plane waves:  127893
 k-point  2 :  -0.0000-0.0000 0.2500  plane waves:  127814
 k-point  3 :  -0.0000-0.0000 0.5000  plane waves:  127850

 maximum and minimum number of plane-waves per node :     32260    31729

 maximum number of plane-waves:    127893
 maximum index in each direction: 
   IXMAX=   46   IYMAX=   51   IZMAX=   13
   IXMIN=  -46   IYMIN=  -51   IZMIN=  -13


 real space projection operators:
  total allocation   :      12223.31 KBytes
  max/ min on nodes  :       3079.83       3040.11


 parallel 3D FFT for wavefunctions:
    minimum data exchange during FFTs selected (reduces bandwidth)
 parallel 3D FFT for charge:
    minimum data exchange during FFTs selected (reduces bandwidth)


 total amount of memory used by VASP MPI-rank0   106735. kBytes
=======================================================================

   base      :      30000. kBytes
   nonlr-proj:       6211. kBytes
   fftplans  :      11440. kBytes
   grid      :      19752. kBytes
   one-center:        606. kBytes
   wavefun   :      38726. kBytes
 
     INWAV:  cpu time    0.0001: real time    0.0001
 Broyden mixing: mesh for mixing (old mesh)
   NGX = 93   NGY =103   NGZ = 27
  (NGX  =288   NGY  =320   NGZ  = 80)
  gives a total of 258633 points

 initial charge density was supplied:
 charge density of overlapping atoms calculated
 number of electron     616.0000000 magnetization 
 keeping initial charge density in first step


--------------------------------------------------------------------------------------------------------


 Maximum index for non-local projection operator          551
 Maximum index for augmentation-charges          315 (set IRDMAX)


--------------------------------------------------------------------------------------------------------


 First call to EWALD:  gamma=   0.113
 Maximum number of real-space cells 2x 2x 6
 Maximum number of reciprocal cells 4x 4x 1

    FEWALD:  cpu time    0.0161: real time    0.0161


--------------------------------------- Iteration      1(   1)  ---------------------------------------


    POTLOK:  cpu time    0.1669: real time    0.2003
    SETDIJ:  cpu time    0.0325: real time    0.0330
    EDDIAG:  cpu time    2.7083: real time    2.7209
  RMM-DIIS:  cpu time    3.5439: real time    3.5519
    ORTHCH:  cpu time    0.6061: real time    0.6071
       DOS:  cpu time    0.0047: real time    0.0053
    --------------------------------------------
      LOOP:  cpu time    7.0626: real time    7.1185

 eigenvalue-minimisations  :  1200
 total energy-change (2. order) : 0.8283035E+04  (-0.2202062E+05)
 number of electron     616.0000000 magnetization 
 augmentation part      616.0000000 magnetization 

 Free energy of the ion-electron system (eV)
  ---------------------------------------------------
  alpha Z        PSCENC =       504.23818770
  Ewald energy   TEWEN  =     43060.32752950
  -Hartree energ DENC   =    -70090.68150093
  -exchange      EXHF   =         0.00000000
  -V(xc)+E(xc)   XCENC  =      2271.51880909
  PAW double counting   =     25034.14638475   -25847.60581054
  entropy T*S    EENTRO =        -0.08493484
  eigenvalues    EBANDS =       917.49658676
  atomic energy  EATOM  =     32433.67991533
  Solvation  Ediel_sol  =         0.00000000
  ---------------------------------------------------
  free energy    TOTEN  =      8283.03516681 eV

  energy without entropy =     8283.12010166  energy(sigma->0) =     8283.07763424


--------------------------------------------------------------------------------------------------------




--------------------------------------- Iteration      1(   2)  ---------------------------------------


    EDDIAG:  cpu time    2.6422: real time    2.6452
  RMM-DIIS:  cpu time    3.4610: real time    3.4652
    ORTHCH:  cpu time    0.6054: real time    0.6054
       DOS:  cpu time    0.0023: real time    0.0023
    --------------------------------------------
      LOOP:  cpu time    6.7108: real time    6.7182

 eigenvalue-minimisations  :  1200
 total energy-change (2. order) :-0.5127344E+04  (-0.6728436E+04)
 number of electron     616.0000000 magnetization 
 augmentation part      616.0000000 magnetization 

 Free energy of the ion-electron system (eV)
  ---------------------------------------------------
  alpha Z        PSCENC =       504.23818770
  Ewald energy   TEWEN  =     43060.32752950
  -Hartree energ DENC   =    -70090.68150093
  -exchange      EXHF   =         0.00000000
  -V(xc)+E(xc)   XCENC  =      2271.51880909
  PAW double counting   =     25034.14638475   -25847.60581054
  entropy T*S    EENTRO =        -0.01704171
  eigenvalues    EBANDS =     -4209.91567494
  atomic energy  EATOM  =     32433.67991533
  Solvation  Ediel_sol  =         0.00000000
  ---------------------------------------------------
  free energy    TOTEN  =      3155.69079825 eV

  energy without entropy =     3155.70783996  energy(sigma->0) =     3155.69931910


--------------------------------------------------------------------------------------------------------




--------------------------------------- Iteration      1(   3)  ---------------------------------------


    EDDIAG:  cpu time    2.6269: real time    2.6304
  RMM-DIIS:  cpu time    3.4689: real time    3.4730
    ORTHCH:  cpu time    0.6019: real time    0.6030
       DOS:  cpu time    0.0030: real time    0.0030
    --------------------------------------------
      LOOP:  cpu time    6.7007: real time    6.7093

 eigenvalue-minimisations  :  1200
 total energy-change (2. order) :-0.2085547E+04  (-0.2928905E+04)
 number of electron     616.0000000 magnetization 
 augmentation part      616.0000000 magnetization 

 Free energy of the ion-electron system (eV)
  ---------------------------------------------------
  alpha Z        PSCENC =       504.23818770
  Ewald energy   TEWEN  =     43060.32752950
  -Hartree energ DENC   =    -70090.68150093
  -exchange      EXHF   =         0.00000000
  -V(xc)+E(xc)   XCENC  =      2271.51880909
  PAW double counting   =     25034.14638475   -25847.60581054
  entropy T*S    EENTRO =        -0.03445370
  eigenvalues    EBANDS =     -6295.44534155
  atomic energy  EATOM  =     32433.67991533
  Solvation  Ediel_sol  =         0.00000000
  ---------------------------------------------------
  free energy    TOTEN  =      1070.14371965 eV

  energy without entropy =     1070.17817335  energy(sigma->0) =     1070.16094650


--------------------------------------------------------------------------------------------------------




--------------------------------------- Iteration      1(   4)  ---------------------------------------


    EDDIAG:  cpu time    2.6321: real time    2.6351
  RMM-DIIS:  cpu time    3.4721: real time    3.4763
    ORTHCH:  cpu time    0.6023: real time    0.6024
       DOS:  cpu time    0.0028: real time    0.0028
    --------------------------------------------
      LOOP:  cpu time    6.7093: real time    6.7166

 eigenvalue-minimisations  :  1200
 total energy-change (2. order) :-0.1411413E+04  (-0.1417035E+04)
 number of electron     616.0000000 magnetization 
 augmentation part      616.0000000 magnetization 

 Free energy of the ion-electron system (eV)
  ---------------------------------------------------
  alpha Z        PSCENC =       504.23818770
  Ewald energy   TEWEN  =     43060.32752950
  -Hartree energ DENC   =    -70090.68150093
  -exchange      EXHF   =         0.00000000
  -V(xc)+E(xc)   XCENC  =      2271.51880909
  PAW double counting   =     25034.14638475   -25847.60581054
  entropy T*S    EENTRO =        -0.03967173
  eigenvalues    EBANDS =     -7706.85319446
  atomic energy  EATOM  =     32433.67991533
  Solvation  Ediel_sol  =         0.00000000
  ---------------------------------------------------
  free energy    TOTEN  =      -341.26935129 eV

  energy without entropy =     -341.22967956  energy(sigma->0) =     -341.24951543


--------------------------------------------------------------------------------------------------------




--------------------------------------- Iteration      1(   5)  ---------------------------------------


    EDDIAG:  cpu time    2.6294: real time    2.6325
  RMM-DIIS:  cpu time    3.4636: real time    3.4684
    ORTHCH:  cpu time    0.6064: real time    0.6073
       DOS:  cpu time    0.0028: real time    0.0027
    --------------------------------------------
      LOOP:  cpu time    6.7021: real time    6.7109

 eigenvalue-minimisations  :  1200
 total energy-change (2. order) :-0.5954822E+03  (-0.5295547E+03)
 number of electron     616.0000000 magnetization 
 augmentation part      616.0000000 magnetization 

 Free energy of the ion-electron system (eV)
  ---------------------------------------------------
  alpha Z        PSCENC =       504.23818770
  Ewald energy   TEWEN  =     43060.32752950
  -Hartree energ DENC   =    -70090.68150093
  -exchange      EXHF   =         0.00000000
  -V(xc)+E(xc)   XCENC  =      2271.51880909
  PAW double counting   =     25034.14638475   -25847.60581054
  entropy T*S    EENTRO =        -0.00915940
  eigenvalues    EBANDS =     -8302.36593833
  atomic energy  EATOM  =     32433.67991533
  Solvation  Ediel_sol  =         0.00000000
  ---------------------------------------------------
  free energy    TOTEN  =      -936.75158284 eV

  energy without entropy =     -936.74242343  energy(sigma->0) =     -936.74700313


--------------------------------------------------------------------------------------------------------




--------------------------------------- Iteration      1(   6)  ---------------------------------------


    EDDIAG:  cpu time    2.6314: real time    2.6349
  RMM-DIIS:  cpu time    3.4706: real time    3.4748
    ORTHCH:  cpu time    0.6279: real time    0.6279
       DOS:  cpu time    0.0014: real time    0.0014
    --------------------------------------------
      LOOP:  cpu time    6.7313: real time    6.7390

 eigenvalue-minimisations  :  1200
 total energy-change (2. order) :-0.2054460E+03  (-0.1796248E+03)
 number of electron     616.0000000 magnetization 
 augmentation part      616.0000000 magnetization 

 Free energy of the ion-electron system (eV)
  ---------------------------------------------------
  alpha Z        PSCENC =       504.23818770
  Ewald energy   TEWEN  =     43060.32752950
  -Hartree energ DENC   =    -70090.68150093
  -exchange      EXHF   =         0.00000000
  -V(xc)+E(xc)   XCENC  =      2271.51880909
  PAW double counting   =     25034.14638475   -25847.60581054
  entropy T*S    EENTRO =        -0.00000000
  eigenvalues    EBANDS =     -8507.82111189
  atomic energy  EATOM  =     32433.67991533
  Solvation  Ediel_sol  =         0.00000000
  ---------------------------------------------------
  free energy    TOTEN  =     -1142.19759699 eV

  energy without entropy =    -1142.19759699  energy(sigma->0) =    -1142.19759699


--------------------------------------------------------------------------------------------------------




--------------------------------------- Iteration      1(   7)  ---------------------------------------


    EDDIAG:  cpu time    2.6295: real time    2.6341
  RMM-DIIS:  cpu time    3.4656: real time    3.4712
    ORTHCH:  cpu time    0.6086: real time    0.6095
       DOS:  cpu time    0.0021: real time    0.0021
    --------------------------------------------
      LOOP:  cpu time    6.7057: real time    6.7169

 eigenvalue-minimisations  :  1200
 total energy-change (2. order) :-0.6175722E+02  (-0.5739533E+02)
 number of electron     616.0000000 magnetization 
 augmentation part      616.0000000 magnetization 

 Free energy of the ion-electron system (eV)
  ---------------------------------------------------
  alpha Z        PSCENC =       504.23818770
  Ewald energy   TEWEN  =     43060.32752950
  -Hartree energ DENC   =    -70090.68150093
  -exchange      EXHF   =         0.00000000
  -V(xc)+E(xc)   XCENC  =      2271.51880909
  PAW double counting   =     25034.14638475   -25847.60581054
  entropy T*S    EENTRO =        -0.00000000
  eigenvalues    EBANDS =     -8569.57832925
  atomic energy  EATOM  =     32433.67991533
  Solvation  Ediel_sol  =         0.00000000
  ---------------------------------------------------
  free energy    TOTEN  =     -1203.95481435 eV

  energy without entropy =    -1203.95481435  energy(sigma->0) =    -1203.95481435


--------------------------------------------------------------------------------------------------------




--------------------------------------- Iteration      1(   8)  ---------------------------------------


    EDDIAG:  cpu time    2.6284: real time    2.6315
  RMM-DIIS:  cpu time    3.4679: real time    3.4720
    ORTHCH:  cpu time    0.6023: real time    0.6024
       DOS:  cpu time    0.0014: real time    0.0014
    --------------------------------------------
      LOOP:  cpu time    6.7000: real time    6.7072

 eigenvalue-minimisations  :  1200
 total energy-change (2. order) :-0.2286692E+02  (-0.1983612E+02)
 number of electron     616.0000000 magnetization 
 augmentation part      616.0000000 magnetization 

 Free energy of the ion-electron system (eV)
  ---------------------------------------------------
  alpha Z        PSCENC =       504.23818770
  Ewald energy   TEWEN  =     43060.32752950
  -Hartree energ DENC   =    -70090.68150093
  -exchange      EXHF   =         0.00000000
  -V(xc)+E(xc)   XCENC  =      2271.51880909
  PAW double counting   =     25034.14638475   -25847.60581054
  entropy T*S    EENTRO =        -0.00000000
  eigenvalues    EBANDS =     -8592.44525076
  atomic energy  EATOM  =     32433.67991533
  Solvation  Ediel_sol  =         0.00000000
  ---------------------------------------------------
  free energy    TOTEN  =     -1226.82173585 eV

  energy without entropy =    -1226.82173585  energy(sigma->0) =    -1226.82173585


--------------------------------------------------------------------------------------------------------




--------------------------------------- Iteration      1(   9)  ---------------------------------------


    EDDIAG:  cpu time    2.6269: real time    2.6299
  RMM-DIIS:  cpu time    7.3685: real time    7.3774
    ORTHCH:  cpu time    0.6007: real time    0.6017
       DOS:  cpu time    0.0027: real time    0.0027
    --------------------------------------------
      LOOP:  cpu time   10.5988: real time   10.6117

 eigenvalue-minimisations  :  2807
 total energy-change (2. order) :-0.1250092E+02  (-0.1196644E+02)
 number of electron     616.0000000 magnetization 
 augmentation part      616.0000000 magnetization 

 Free energy of the ion-electron system (eV)
  ---------------------------------------------------
  alpha Z        PSCENC =       504.23818770
  Ewald energy   TEWEN  =     43060.32752950
[...]
   -.793E+01 0.210E+03 -.206E+02   -.136E+02 -.202E+03 0.299E+02   0.216E+02 -.811E+01 -.930E+01   0.460E-05 0.128E-04 0.941E-05
   -.238E+03 -.618E+02 -.938E+02   0.234E+03 0.444E+02 0.108E+03   0.367E+01 0.174E+02 -.142E+02   0.852E-05 -.746E-05 0.715E-06
   0.237E+03 0.627E+02 0.936E+02   -.234E+03 -.453E+02 -.108E+03   -.368E+01 -.174E+02 0.142E+02   -.769E-05 0.929E-05 -.254E-05
   0.238E+03 0.621E+02 0.934E+02   -.234E+03 -.447E+02 -.108E+03   -.369E+01 -.174E+02 0.141E+02   -.813E-05 0.728E-05 -.211E-05
   -.923E+01 -.209E+03 0.208E+02   -.123E+02 0.201E+03 -.300E+02   0.216E+02 0.809E+01 0.928E+01   0.713E-05 -.125E-04 -.776E-05
   0.840E+01 0.209E+03 -.210E+02   0.131E+02 -.201E+03 0.303E+02   -.216E+02 -.812E+01 -.933E+01   -.562E-05 0.137E-04 0.850E-05
   0.849E+01 -.209E+03 0.205E+02   0.130E+02 0.201E+03 -.298E+02   -.216E+02 0.808E+01 0.928E+01   -.579E-05 -.127E-04 -.900E-05
   0.109E+03 -.103E+03 -.167E+02   -.110E+03 0.103E+03 0.168E+02   0.663E+00 -.224E+00 -.769E-02   -.218E-04 0.245E-05 0.653E-05
   0.109E+03 0.103E+03 0.167E+02   -.109E+03 -.103E+03 -.167E+02   0.646E+00 0.245E+00 -.619E-02   -.216E-04 -.365E-05 -.939E-05
   -.109E+03 -.103E+03 -.167E+02   0.110E+03 0.103E+03 0.167E+02   -.664E+00 -.230E+00 -.554E-02   0.211E-04 0.905E-06 0.481E-05
   -.108E+03 0.103E+03 0.167E+02   0.109E+03 -.103E+03 -.167E+02   -.638E+00 0.249E+00 -.705E-02   0.237E-04 -.243E-05 -.514E-05
   -.108E+03 0.103E+03 0.167E+02   0.109E+03 -.103E+03 -.167E+02   -.654E+00 0.242E+00 -.350E-02   0.201E-04 -.117E-05 -.590E-05
   0.109E+03 -.103E+03 -.169E+02   -.110E+03 0.103E+03 0.169E+02   0.670E+00 -.227E+00 -.140E-01   -.207E-04 -.714E-06 0.534E-05
   -.109E+03 -.103E+03 -.167E+02   0.110E+03 0.103E+03 0.167E+02   -.667E+00 -.227E+00 -.890E-02   0.202E-04 -.647E-06 0.783E-05
   0.108E+03 0.103E+03 0.166E+02   -.109E+03 -.104E+03 -.166E+02   0.634E+00 0.251E+00 -.109E-01   -.215E-04 -.142E-05 -.545E-05
   0.290E+03 0.180E+03 0.199E+03   -.281E+03 -.219E+03 -.235E+03   -.948E+01 0.394E+02 0.362E+02   -.233E-04 0.208E-04 -.152E-04
   -.186E+03 -.277E+03 -.292E+03   0.212E+03 0.274E+03 0.340E+03   -.268E+02 0.304E+01 -.475E+02   -.505E-04 0.201E-04 0.481E-04
   -.185E+03 0.276E+03 0.292E+03   0.212E+03 -.273E+03 -.340E+03   -.268E+02 -.300E+01 0.475E+02   -.503E-04 -.194E-04 -.477E-04
   0.185E+03 -.276E+03 -.292E+03   -.212E+03 0.273E+03 0.340E+03   0.268E+02 0.303E+01 -.476E+02   0.481E-04 0.199E-04 0.496E-04
   0.185E+03 0.276E+03 0.292E+03   -.212E+03 -.273E+03 -.340E+03   0.268E+02 -.303E+01 0.475E+02   0.499E-04 -.195E-04 -.486E-04
   -.290E+03 -.180E+03 -.199E+03   0.281E+03 0.220E+03 0.235E+03   0.953E+01 -.394E+02 -.361E+02   0.235E-04 -.187E-04 0.157E-04
   -.291E+03 0.181E+03 0.199E+03   0.281E+03 -.220E+03 -.235E+03   0.948E+01 0.394E+02 0.361E+02   0.222E-04 0.206E-04 -.145E-04
   -.290E+03 -.180E+03 -.200E+03   0.280E+03 0.219E+03 0.236E+03   0.954E+01 -.393E+02 -.362E+02   0.240E-04 -.212E-04 0.158E-04
   0.290E+03 0.180E+03 0.199E+03   -.281E+03 -.220E+03 -.236E+03   -.954E+01 0.394E+02 0.362E+02   -.230E-04 0.179E-04 -.164E-04
   0.186E+03 0.277E+03 0.292E+03   -.213E+03 -.274E+03 -.340E+03   0.269E+02 -.295E+01 0.475E+02   0.467E-04 -.206E-04 -.514E-04
   0.185E+03 -.276E+03 -.292E+03   -.212E+03 0.273E+03 0.340E+03   0.268E+02 0.308E+01 -.476E+02   0.481E-04 0.188E-04 0.504E-04
   -.185E+03 0.276E+03 0.292E+03   0.212E+03 -.273E+03 -.340E+03   -.268E+02 -.307E+01 0.476E+02   -.487E-04 -.219E-04 -.500E-04
   0.290E+03 -.181E+03 -.200E+03   -.280E+03 0.220E+03 0.236E+03   -.957E+01 -.393E+02 -.362E+02   -.238E-04 -.218E-04 0.160E-04
   -.290E+03 0.180E+03 0.200E+03   0.281E+03 -.220E+03 -.236E+03   0.948E+01 0.394E+02 0.362E+02   0.251E-04 0.169E-04 -.179E-04
   0.289E+03 -.180E+03 -.200E+03   -.280E+03 0.219E+03 0.236E+03   -.955E+01 -.393E+02 -.363E+02   -.237E-04 -.182E-04 0.170E-04
   -.185E+03 -.277E+03 -.292E+03   0.212E+03 0.274E+03 0.340E+03   -.268E+02 0.299E+01 -.476E+02   -.476E-04 0.177E-04 0.511E-04
 -----------------------------------------------------------------------------------------------
   0.972E-01 -.308E+00 0.525E+00   -.114E-12 -.171E-12 -.102E-11   -.639E-01 0.381E+00 -.442E+00   -.245E-05 -.220E-04 -.189E-05
 
 
 POSITION                                       TOTAL-FORCE (eV/Angst)
 -----------------------------------------------------------------------------------
     21.98866     24.50630     -4.17335        -0.000251      0.000419     -0.001748
     20.93197     23.89687     -2.30795         0.003163      0.003092      0.001390
     21.98534     19.21677      1.61885         0.000112     -0.000662      0.001998
     13.21813     11.36466      1.82599        -0.000018     -0.000090     -0.002113
     14.27457      7.55277     -0.85277        -0.002872     -0.002948     -0.001927
      2.53796     20.25993     -3.54794        -0.002584     -0.002933     -0.001399
     14.27589     10.75463      3.69056        -0.002568      0.002883      0.000910
     13.22062      6.94073      1.01338         0.000376     -0.000201      0.000795
      9.19327     11.18594      0.39005         0.003391      0.002447      0.001270
      1.48114     19.64888     -1.68310         0.000132     -0.000476      0.001477
      2.54248     23.46161      0.99430        -0.002906      0.003091      0.001543
      9.19582      7.11885      2.45147         0.003177     -0.002941     -0.001555
     20.93012     19.83080     -0.24593         0.003025     -0.002530     -0.001363
      1.48626     24.07256     -0.87088         0.000431      0.000599     -0.002115
     10.25044      6.50799      4.31765        -0.000099     -0.000540      0.001771
     10.24986     11.79786     -1.47466         0.000029      0.000669     -0.001917
     19.22616      0.37161      0.52768         0.003781      0.000502     -0.003816
     19.73427      1.38582      2.77025         0.000885      0.001596      0.002040
     19.72613     16.92231      0.05537         0.002484     -0.000626     -0.004591
     15.47234     13.66574      3.38338        -0.001261      0.000984      0.001648
     15.47731      4.64392     -0.55224        -0.001154     -0.001213     -0.001374
      4.24393     18.36604     -1.00053        -0.004022     -0.001181      0.003032
     15.97908     12.65009      1.14110        -0.003474     -0.000048     -0.003911
     15.98435      5.65713      1.69149        -0.005363      0.002600      0.007512
      7.48787     13.08077     -2.15770         0.004143      0.003502     -0.002252
      3.73661     17.34916     -3.24269        -0.000944     -0.001343     -0.000762
      3.73776      0.95050      6.07433         0.000013      0.001386      0.000484
      7.99351      4.21089      2.75199        -0.001017     -0.001260      0.001658
     19.22023     17.93693      2.29869         0.004779      0.001065      0.005960
      4.24536     -0.06250      3.83092        -0.003864      0.001983     -0.002499
      7.48761      5.22238      4.99672         0.004080     -0.002734      0.002092
      7.99459     14.09703      0.08446        -0.000358      0.001117      0.000488
     18.24877      1.46073      0.28540         0.002639      0.002091     -0.001724
     18.78812      2.48451      2.45935        -0.000914     -0.000123      0.000969
     18.77769     15.82545      0.36588        -0.001016      0.000537     -0.000667
     16.41772     14.76452      3.07084         0.001145      0.000474      0.000707
     16.42601      3.54690     -0.24304         0.000478     -0.000487     -0.000605
      5.22298     17.27851     -0.75786        -0.003382     -0.002063      0.001967
     16.95581     13.73927      0.89726        -0.003355      0.002490     -0.002165
     16.96450      4.56998      1.93180        -0.004144     -0.002834      0.001388
      6.50963     14.16865     -2.40093         0.002951      0.001723     -0.002111
      4.68532     16.25265     -2.93170         0.000511     -0.001021     -0.000681
      4.68373      2.04950      5.76368         0.000674     -0.000061      0.001312
      7.04522      3.11340      3.06119        -0.000697     -0.000468     -0.000817
     18.24033     16.84999      2.54026         0.003494     -0.002087      0.000746
      5.22271      1.02673      3.58901        -0.002792      0.002119     -0.001449
      6.50759      4.13503      5.23675         0.003446     -0.002559      0.002211
      7.04747     15.19457     -0.22744        -0.000848      0.000587      0.001602
     17.51972      0.61176      5.70744         0.004869      0.001946     -0.003130
     18.60413      3.51346      3.37641        -0.003009     -0.001227      0.003837
     18.59225     14.79613     -0.55053        -0.003418      0.001189     -0.003433
     16.60126     16.66159     -2.61742         0.003831     -0.001610      0.002515
     16.61213      1.65079      5.44406         0.003001      0.001673     -0.002738
      5.95343     17.26178      0.42453        -0.005484     -0.002021      0.003486
     17.68510     13.75706     -0.28565        -0.004763      0.002720     -0.003676
     17.69588      4.55204      3.11358        -0.004951     -0.001954      0.004394
      5.78064     13.31771      3.02109         0.004771      0.002225     -0.002993
      4.87220     14.35566      2.75654         0.002857      0.001176     -0.002537
      4.86702      3.94553      0.07663         0.003489     -0.001112      0.003632
      6.85967      2.08546      2.14319        -0.003173      0.001460     -0.002899
     17.50896     17.70021     -2.88182         0.004122     -0.002185      0.003849
      5.95233      1.04615      2.40630        -0.005182      0.002330     -0.002547
      5.77543      4.98409     -0.18581         0.005385     -0.002357      0.003415
      6.86200     16.22388      0.68893        -0.003732     -0.001855      0.002450
     20.88015     24.80251     -3.37402         0.001684      0.002168     -0.000820
     20.87662     18.92346      0.81845         0.001784     -0.001907      0.000135
     14.32732     11.66025      2.62450        -0.000990      0.002038     -0.000895
     14.32819      6.64571      0.21197        -0.002041     -0.001962      0.000496
      2.58968     19.35329     -2.48275        -0.001684     -0.001981      0.000432
      9.14092     12.09229     -0.67533         0.001970      0.002630     -0.000233
      2.59473     24.36787     -0.07122        -0.001988      0.002471     -0.000511
      9.14272      6.21235      3.51670         0.001641     -0.002235      0.000183
     18.06764      2.48832      1.24140        -0.000494      0.000901     -0.000404
     18.05814     15.82245      1.58430        -0.000294     -0.000554      0.000767
     17.13716     14.76768      1.85230        -0.000644      0.000995     -0.000664
     17.14620      3.54309      0.97494        -0.000689     -0.001105      0.001354
      5.40530     16.25060     -1.71350        -0.000711     -0.000628      0.000578
      6.32752     15.19685     -1.44570         0.000231      0.000888     -0.000228
      5.40404      2.05375      4.54564         0.000121      0.000660     -0.000894
      6.32549      3.10863      4.27949         0.000664     -0.000747      0.001069
      0.51938     22.29587     -4.57790        -0.000431      0.000257     -0.000759
     22.95249     21.86227     -1.27535         0.000817     -0.000048     -0.000239
     11.21576      9.15341      1.42201         0.001063     -0.000678      0.000018
     12.25441      9.58857     -1.88031        -0.001104      0.000081     -0.000384
      7.43120      2.11134      1.21567        -0.005271      0.001513     -0.003340
     17.52887     12.95144     -1.00226        -0.006165      0.003785     -0.004819
     17.53953      5.35665      3.83128        -0.006950     -0.004004      0.004994
     17.67567     -0.19312      4.98995         0.006422      0.003668     -0.004483
     17.66542     18.50548     -2.16487         0.007398     -0.004435      0.005039
     16.02937     16.63675     -1.69012         0.005319     -0.001839      0.003879
      4.30030     14.37952      1.82920         0.004264      0.001044     -0.003372
      4.29464      3.91973      1.00363         0.004881     -0.001318      0.003382
     19.16366     14.82056     -1.47816        -0.004631      0.001840     -0.003327
      5.93196      5.78822      0.53237         0.006792     -0.003528      0.004845
      5.93740     12.51221      2.30446         0.006734      0.003616     -0.004648
      5.79650     18.06701      1.14141        -0.007059     -0.003739      0.004712
      7.43389     16.19948      1.61623        -0.005093     -0.001445      0.003814
     16.03998      1.67591      4.51690         0.004870      0.001649     -0.003447
     19.17664      3.48804      4.30330        -0.004941     -0.001525      0.003459
      5.79602      0.24181      1.68829        -0.006635      0.003485     -0.004518
     14.91699     11.52319     -2.04312        -0.004073      0.004095      0.002720
      8.55519      7.21790      1.57948         0.004253     -0.004613     -0.003561
     10.57716     12.24681     -2.40678        -0.001611     -0.000414     -0.003661
      1.15344     19.19979     -0.75117         0.001401      0.000759      0.003135
      3.18315     24.22953     -4.73911        -0.004859      0.004849      0.003085
     10.57594      6.92656     -1.35443        -0.001526      0.000532      0.003324
     22.31624     24.95445     -5.10574        -0.001628     -0.000736     -0.003688
     20.28902     19.93154     -1.11738         0.004256     -0.004348     -0.003216
      1.15881     24.52134     -1.80303         0.001623     -0.000678     -0.003805
     12.88998     11.81295      0.89382         0.001821     -0.000667     -0.003664
     14.91590      6.78487      4.87951        -0.004503     -0.004555     -0.003163
     20.29013     23.79804     -1.43686         0.004734      0.004693      0.003040
     12.89435      6.49119      1.94560         0.001270      0.000772      0.003365
      8.55120     11.08578      1.26081         0.004829      0.004848      0.003186
      3.18044     19.49148      2.18516        -0.004385     -0.004453     -0.003180
     22.31081     19.63412     -4.05380        -0.001386      0.000587      0.002879
     22.66321     23.48474     -3.61799        -0.000488      0.000316     -0.001359
     22.00743     23.10332     -2.47902         0.001031      0.002358      0.000525
     22.66141     20.23852      1.06559        -0.000319     -0.000918      0.000692
     12.54362     10.34330      2.38171         0.001157      0.001391     -0.001235
     13.19942      8.34601     -0.67894        -0.001106     -0.002250     -0.001233
      1.46278     21.05348     -3.37589        -0.000915     -0.002313     -0.001083
     13.20003      9.96156      3.52016        -0.001451      0.001731      0.000935
     12.54523      7.96325      0.46053         0.000091     -0.000460      0.000733
     10.26951     10.39357      0.21863         0.001441      0.002530      0.000799
      0.80687     20.67135     -2.23725         0.000431     -0.000740      0.000698
      1.46668     22.66860      0.82274        -0.001017      0.002560      0.000670
     10.27099      7.91218      2.62445         0.000726     -0.002685     -0.001153
     22.00643     20.62253     -0.07294         0.001213     -0.002341     -0.001288
      0.81125     23.05099     -0.31610         0.000593      0.000570     -0.001362
     10.92562      7.53015      3.76389        -0.000707     -0.000923      0.000799
     10.92524     10.77658     -0.91981        -0.000564      0.001093     -0.001272
     19.91455      0.40057      1.76783         0.002464      0.002417     -0.000590
     19.90966     17.90582      1.05898         0.001669     -0.002286      0.001104
     15.29132     12.68009      2.38157        -0.001724      0.002178     -0.001111
     15.29440      5.62706      0.45199        -0.002460     -0.002632      0.000684
      3.55489     18.33441     -2.24048        -0.002232     -0.002528      0.000837
      8.17591     13.11140     -0.91742         0.002648      0.002357     -0.000569
      3.55723     -0.03411      5.07127        -0.002234      0.002771     -0.000596
      8.17692      5.19332      3.75684         0.002144     -0.002486      0.000834
     19.44120     24.03807      0.92624         0.004144      0.004721     -0.000607
     20.33691      1.31929      3.83908        -0.001675      0.001353     -0.000002
     20.32840     16.98808     -1.01385        -0.003086     -0.001255      0.002573
     14.86994     14.46684     -2.15152         0.001160      0.001538     -0.000366
     14.87546      3.84289      4.98349         0.001175     -0.001081     -0.000541
      4.03044     19.25485     -0.17941        -0.003944     -0.004207      0.001559
     15.76661     11.76092      0.32022        -0.003185      0.004785     -0.001260
     15.77049      6.54420      2.51447        -0.004311     -0.007627     -0.001438
      7.70264     11.32487      3.62544         0.005995      0.004730     -0.003973
      3.13422     16.54638      2.29323         0.001180     -0.001647     -0.001025
      3.13459      1.75047      0.53889         0.001148      0.001123      0.001939
      8.59554      4.27824      1.68284        -0.000178     -0.000770     -0.003445
     19.43365     19.69190     -3.48347         0.004803     -0.007668      0.001109
      4.03447     24.47189     -2.37537        -0.004267      0.003777     -0.001807
      7.70070      6.97626     -0.78426         0.005052     -0.003971      0.003238
      8.59689     14.03161      1.15354        -0.001505      0.000884      0.002588
 -----------------------------------------------------------------------------------
    total drift:                                0.033258      0.073494      0.083671


--------------------------------------------------------------------------------------------------------



  FREE ENERGIE OF THE ION-ELECTRON SYSTEM (eV)
  ---------------------------------------------------
  free  energy   TOTEN  =     -1162.00478729 eV

  energy  without entropy=    -1162.00478729  energy(sigma->0) =    -1162.00478729
 


--------------------------------------------------------------------------------------------------------


    POTLOK:  cpu time    0.1721: real time    0.1731


--------------------------------------------------------------------------------------------------------


 Quasi-Newton relaxation of ions (Broydens 2nd method)
  g(Force)  = 0.169E-03   g(Stress)= 0.794E-05

 Reset! Starting new Quasi-Newton update for ions 


--------------------------------------------------------------------------------------------------------


  
 reached required accuracy - stopping structural energy minimisation
 writing wavefunctions
     LOOP+:  cpu time  394.0568: real time  404.9370
    4ORBIT:  cpu time    0.0000: real time    0.0000

 total amount of memory used by VASP MPI-rank0   106735. kBytes
=======================================================================

   base      :      30000. kBytes
   nonlr-proj:       6211. kBytes
   fftplans  :      11440. kBytes
   grid      :      19752. kBytes
   one-center:        606. kBytes
   wavefun   :      38726. kBytes
 
  
  
 General timing and accounting informations for this job:
 ========================================================
  
                  Total CPU time used (sec):      483.732
                            User time (sec):      432.693
                          System time (sec):       51.040
                         Elapsed time (sec):      496.900
  
                   Maximum memory used (kb):      984560.
                   Average memory used (kb):           0.
  
                          Minor page faults:       294367
                          Major page faults:            3
                 Voluntary context switches:         6957
