       N       E                     dE             d eps       ncg     rms          rms(c)
RMM:   1     0.858774380576E+04    0.85877E+04   -0.21138E+05   800   0.121E+03
RMM:   2     0.331684913275E+04   -0.52709E+04   -0.66816E+04   800   0.272E+02
RMM:   3     0.126839316707E+04   -0.20485E+04   -0.29819E+04   800   0.179E+02
RMM:   4    -0.224949929113E+03   -0.14933E+04   -0.15174E+04   800   0.154E+02
RMM:   5    -0.891739797310E+03   -0.66679E+03   -0.59343E+03   800   0.103E+02
RMM:   6    -0.113228949485E+04   -0.24055E+03   -0.21067E+03   800   0.651E+01
RMM:   7    -0.120037963022E+04   -0.68090E+02   -0.63877E+02   800   0.365E+01
RMM:   8    -0.122594523460E+04   -0.25566E+02   -0.21843E+02   800   0.220E+01
RMM:   9    -0.123943720118E+04   -0.13492E+02   -0.12920E+02  1837   0.128E+01
RMM:  10    -0.124058206623E+04   -0.11449E+01   -0.10817E+01  2169   0.401E+00
RMM:  11    -0.124063885445E+04   -0.56788E-01   -0.45288E-01  1882   0.791E-01
RMM:  12    -0.124064293284E+04   -0.40784E-02   -0.38676E-02  2162   0.233E-01    0.574E+01
RMM:  13    -0.116886970152E+04    0.71773E+02   -0.16479E+02  1600   0.164E+01    0.318E+01
RMM:  14    -0.115379067758E+04    0.15079E+02   -0.44313E+01  1601   0.846E+00    0.147E+01
RMM:  15    -0.115207581704E+04    0.17149E+01   -0.10537E+01  1600   0.447E+00    0.492E+00
RMM:  16    -0.115182849083E+04    0.24733E+00   -0.85586E-01  1633   0.144E+00    0.144E+00
RMM:  17    -0.115179675713E+04    0.31734E-01   -0.16775E-01  1620   0.657E-01    0.521E-01
RMM:  18    -0.115179036014E+04    0.63970E-02   -0.50313E-02  1604   0.291E-01    0.283E-01
RMM:  19    -0.115179312262E+04   -0.27625E-02   -0.11974E-02  1609   0.152E-01    0.157E-01
RMM:  20    -0.115180297938E+04   -0.98568E-02   -0.11943E-02  1600   0.131E-01    0.120E-01
RMM:  21    -0.115180841575E+04   -0.54364E-02   -0.74251E-03  1600   0.924E-02    0.844E-02
RMM:  22    -0.115181306401E+04   -0.46483E-02   -0.21073E-03  1600   0.568E-02    0.351E-02
RMM:  23    -0.115181631269E+04   -0.32487E-02   -0.40301E-04  1642   0.264E-02    0.275E-02
RMM:  24    -0.115182009942E+04   -0.37867E-02   -0.43143E-04  1600   0.239E-02    0.175E-02
RMM:  25    -0.115182221693E+04   -0.21175E-02   -0.25514E-04  1600   0.170E-02    0.117E-02
RMM:  26    -0.115182331643E+04   -0.10995E-02   -0.84227E-05  1501   0.875E-03    0.482E-03
RMM:  27    -0.115182383637E+04   -0.51994E-03   -0.32262E-05  1426   0.523E-03    0.420E-03
RMM:  28    -0.115182407342E+04   -0.23705E-03   -0.11981E-05  1329   0.369E-03    0.146E-03
RMM:  29    -0.115182415304E+04   -0.79621E-04   -0.34625E-06  1132   0.202E-03    0.804E-04
RMM:  30    -0.115182418035E+04   -0.27311E-04   -0.11410E-06  1021   0.122E-03    0.783E-04
RMM:  31    -0.115182418502E+04   -0.46640E-05   -0.31356E-07   857   0.736E-04    0.344E-04
RMM:  32    -0.115182418715E+04   -0.21357E-05   -0.18787E-07   823   0.583E-04    0.345E-04
RMM:  33    -0.115182418760E+04   -0.45060E-06   -0.71188E-08   643   0.398E-04
   1 F= -.11615598E+04 E0= -.11615598E+04  d E =-.116156E+04
