 vasp.6.0.8 29Jun18 (build Mar 14 2019 11:44:20) complex                        
  
 executed on             LinuxIFC date 2021.01.19  15:57:57
 running   64 mpi-ranks, with    1 threads/rank
 distrk:  each k-point on   64 cores,    1 groups
 distr:  one band on NCORES_PER_BAND=   4 cores,   16 groups


--------------------------------------------------------------------------------------------------------


 INCAR:
 POTCAR:    PAW_PBE C 08Apr2002                   
 POTCAR:    PAW_PBE Zn 06Sep2000                  
 POTCAR:    PAW_PBE H 15Jun2001                   
 POTCAR:    PAW_PBE N 08Apr2002                   
 POTCAR:    PAW_PBE O 08Apr2002                   
 POTCAR:    PAW_PBE C 08Apr2002                   
   VRHFIN =C: s2p2                                                              
   LEXCH  = PE                                                                  
   EATOM  =   147.1560 eV,   10.8157 Ry                                         
                                                                                
   TITEL  = PAW_PBE C 08Apr2002                                                 
   LULTRA =        F    use ultrasoft PP ?                                      
   IUNSCR =        1    unscreen: 0-lin 1-nonlin 2-no                           
   RPACOR =    1.200    partial core radius                                     
   POMASS =   12.011; ZVAL   =    4.000    mass and valenz                      
   RCORE  =    1.500    outmost cutoff radius                                   
   RWIGS  =    1.630; RWIGS  =    0.863    wigner-seitz radius (au A)           
   ENMAX  =  400.000; ENMIN  =  300.000 eV                                      
   ICORE  =        2    local potential                                         
   LCOR   =        T    correct aug charges                                     
   LPAW   =        T    paw PP                                                  
   EAUG   =  644.873                                                            
   DEXC   =    0.000                                                            
   RMAX   =    1.529    core radius for proj-oper                               
   RAUG   =    1.300    factor for augmentation sphere                          
   RDEP   =    1.501    radius for radial grids                                 
   RDEPT  =    1.300    core radius for aug-charge                              
                                                                                
   Atomic configuration                                                         
    4 entries                                                                   
     n  l   j            E        occ.                                          
     1  0  0.50      -273.3789   2.0000                                         
     2  0  0.50       -13.7508   2.0000                                         
     2  1  0.50        -5.2854   2.0000                                         
     3  2  1.50        -5.4423   0.0000                                         
   Description                                                                  
     l       E           TYP  RCUT    TYP  RCUT                                 
     0    -13.7508458     23  1.200                                             
     0     -8.2022199     23  1.200                                             
     1     -5.2854383     23  1.500                                             
     1     34.0145650     23  1.500                                             
     2     -5.4423304      7  1.500                                             
  local pseudopotential read in
  partial core-charges read in
  partial kinetic energy density read in
  atomic valenz-charges read in
  non local Contribution for L=           0  read in
    real space projection operators read in
  non local Contribution for L=           0  read in
    real space projection operators read in
  non local Contribution for L=           1  read in
    real space projection operators read in
  non local Contribution for L=           1  read in
    real space projection operators read in
    PAW grid and wavefunctions read in
 
   number of l-projection  operators is LMAX  =           4
   number of lm-projection operators is LMMAX =           8
 
 POTCAR:    PAW_PBE Zn 06Sep2000                  
   VRHFIN =Zn: d10 p2                                                           
   LEXCH  = PE                                                                  
   EATOM  =  1748.8345 eV,  128.5357 Ry                                         
                                                                                
   TITEL  = PAW_PBE Zn 06Sep2000                                                
   LULTRA =        F    use ultrasoft PP ?                                      
   IUNSCR =        1    unscreen: 0-lin 1-nonlin 2-no                           
   RPACOR =    2.000    partial core radius                                     
   POMASS =   65.390; ZVAL   =   12.000    mass and valenz                      
   RCORE  =    2.300    outmost cutoff radius                                   
   RWIGS  =    2.400; RWIGS  =    1.270    wigner-seitz radius (au A)           
   ENMAX  =  276.723; ENMIN  =  207.542 eV                                      
   RCLOC  =    1.828    cutoff for local pot                                    
   LCOR   =        T    correct aug charges                                     
   LPAW   =        T    paw PP                                                  
   EAUG   =  575.892                                                            
   DEXC   =    0.000                                                            
   RMAX   =    2.347    core radius for proj-oper                               
   RAUG   =    1.300    factor for augmentation sphere                          
   RDEP   =    2.324    radius for radial grids                                 
   RDEPT  =    1.788    core radius for aug-charge                              
                                                                                
   Atomic configuration                                                         
    9 entries                                                                   
     n  l   j            E        occ.                                          
     1  0  0.50     -9524.6913   2.0000                                         
     2  0  0.50     -1158.1882   2.0000                                         
     2  1  1.50     -1003.8506   6.0000                                         
     3  0  0.50      -129.2194   2.0000                                         
     3  1  1.50       -83.3890   6.0000                                         
     3  2  2.50       -10.1410  10.0000                                         
     4  0  0.50        -5.9785   2.0000                                         
     4  1  0.50        -4.0817   0.0000                                         
     4  3  2.50        -1.3606   0.0000                                         
   Description                                                                  
     l       E           TYP  RCUT    TYP  RCUT                                 
     2    -10.1410010     23  2.300                                             
     2    -11.5015836     23  2.300                                             
     0     -5.9785163     23  2.300                                             
     0      1.1858015     23  2.300                                             
     1     -2.7211652     23  2.300                                             
     1     13.2444212     23  2.300                                             
  local pseudopotential read in
  partial core-charges read in
  partial kinetic energy density read in
  atomic valenz-charges read in
  non local Contribution for L=           2  read in
    real space projection operators read in
  non local Contribution for L=           2  read in
    real space projection operators read in
  non local Contribution for L=           0  read in
    real space projection operators read in
  non local Contribution for L=           0  read in
    real space projection operators read in
  non local Contribution for L=           1  read in
    real space projection operators read in
  non local Contribution for L=           1  read in
    real space projection operators read in
    PAW grid and wavefunctions read in
 
   number of l-projection  operators is LMAX  =           6
   number of lm-projection operators is LMMAX =          18
 
 POTCAR:    PAW_PBE H 15Jun2001                   
   VRHFIN =H: ultrasoft test                                                    
   LEXCH  = PE                                                                  
   EATOM  =    12.4884 eV,    0.9179 Ry                                         
                                                                                
   TITEL  = PAW_PBE H 15Jun2001                                                 
   LULTRA =        F    use ultrasoft PP ?                                      
   IUNSCR =        0    unscreen: 0-lin 1-nonlin 2-no                           
   RPACOR =    0.000    partial core radius                                     
   POMASS =    1.000; ZVAL   =    1.000    mass and valenz                      
   RCORE  =    1.100    outmost cutoff radius                                   
   RWIGS  =    0.700; RWIGS  =    0.370    wigner-seitz radius (au A)           
   ENMAX  =  250.000; ENMIN  =  200.000 eV                                      
   RCLOC  =    0.701    cutoff for local pot                                    
   LCOR   =        T    correct aug charges                                     
   LPAW   =        T    paw PP                                                  
   EAUG   =  400.000                                                            
   RMAX   =    1.123    core radius for proj-oper                               
   RAUG   =    1.200    factor for augmentation sphere                          
   RDEP   =    1.112    radius for radial grids                                 
   RDEPT  =    0.926    core radius for aug-charge                              
                                                                                
   Atomic configuration                                                         
    2 entries                                                                   
     n  l   j            E        occ.                                          
     1  0  0.50        -6.4927   1.0000                                         
     2  1  0.50        -3.4015   0.0000                                         
   Description                                                                  
     l       E           TYP  RCUT    TYP  RCUT                                 
     0     -6.4927494     23  1.100                                             
     0      6.8029130     23  1.100                                             
     1     -4.0817478     23  1.100                                             
  local pseudopotential read in
  atomic valenz-charges read in
  non local Contribution for L=           0  read in
    real space projection operators read in
  non local Contribution for L=           0  read in
    real space projection operators read in
  non local Contribution for L=           1  read in
    real space projection operators read in
    PAW grid and wavefunctions read in
 
   number of l-projection  operators is LMAX  =           3
   number of lm-projection operators is LMMAX =           5
 
 POTCAR:    PAW_PBE N 08Apr2002                   
   VRHFIN =N: s2p3                                                              
   LEXCH  = PE                                                                  
   EATOM  =   264.5486 eV,   19.4438 Ry                                         
                                                                                
   TITEL  = PAW_PBE N 08Apr2002                                                 
   LULTRA =        F    use ultrasoft PP ?                                      
   IUNSCR =        1    unscreen: 0-lin 1-nonlin 2-no                           
   RPACOR =    1.200    partial core radius                                     
   POMASS =   14.001; ZVAL   =    5.000    mass and valenz                      
   RCORE  =    1.500    outmost cutoff radius                                   
   RWIGS  =    1.400; RWIGS  =    0.741    wigner-seitz radius (au A)           
   ENMAX  =  400.000; ENMIN  =  300.000 eV                                      
   ICORE  =        2    local potential                                         
   LCOR   =        T    correct aug charges                                     
   LPAW   =        T    paw PP                                                  
   EAUG   =  627.112                                                            
   DEXC   =    0.000                                                            
   RMAX   =    1.529    core radius for proj-oper                               
   RAUG   =    1.300    factor for augmentation sphere                          
   RDEP   =    1.514    radius for radial grids                                 
   RDEPT  =    1.338    core radius for aug-charge                              
                                                                                
   Atomic configuration                                                         
    4 entries                                                                   
     n  l   j            E        occ.                                          
     1  0  0.50      -384.7179   2.0000                                         
     2  0  0.50       -18.5828   2.0000                                         
     2  1  0.50        -7.0898   3.0000                                         
     3  2  1.50        -6.8029   0.0000                                         
   Description                                                                  
     l       E           TYP  RCUT    TYP  RCUT                                 
     0    -18.5828119     23  1.200                                             
     0    -13.5018863     23  1.200                                             
     1     -7.0897853     23  1.500                                             
     1      9.5240782     23  1.500                                             
     2     -6.8029130      7  1.500                                             
  local pseudopotential read in
  partial core-charges read in
  partial kinetic energy density read in
  atomic valenz-charges read in
  non local Contribution for L=           0  read in
    real space projection operators read in
  non local Contribution for L=           0  read in
    real space projection operators read in
  non local Contribution for L=           1  read in
    real space projection operators read in
  non local Contribution for L=           1  read in
    real space projection operators read in
    PAW grid and wavefunctions read in
 
   number of l-projection  operators is LMAX  =           4
   number of lm-projection operators is LMMAX =           8
 
 POTCAR:    PAW_PBE O 08Apr2002                   
   VRHFIN =O: s2p4                                                              
   LEXCH  = PE                                                                  
   EATOM  =   432.3788 eV,   31.7789 Ry                                         
                                                                                
   TITEL  = PAW_PBE O 08Apr2002                                                 
   LULTRA =        F    use ultrasoft PP ?                                      
   IUNSCR =        1    unscreen: 0-lin 1-nonlin 2-no                           
   RPACOR =    1.200    partial core radius                                     
   POMASS =   16.000; ZVAL   =    6.000    mass and valenz                      
   RCORE  =    1.520    outmost cutoff radius                                   
   RWIGS  =    1.550; RWIGS  =    0.820    wigner-seitz radius (au A)           
   ENMAX  =  400.000; ENMIN  =  300.000 eV                                      
   ICORE  =        2    local potential                                         
   LCOR   =        T    correct aug charges                                     
   LPAW   =        T    paw PP                                                  
   EAUG   =  605.392                                                            
   DEXC   =    0.000                                                            
   RMAX   =    1.553    core radius for proj-oper                               
   RAUG   =    1.300    factor for augmentation sphere                          
   RDEP   =    1.550    radius for radial grids                                 
   RDEPT  =    1.329    core radius for aug-charge                              
                                                                                
   Atomic configuration                                                         
    4 entries                                                                   
     n  l   j            E        occ.                                          
     1  0  0.50      -514.6923   2.0000                                         
     2  0  0.50       -23.9615   2.0000                                         
     2  1  0.50        -9.0305   4.0000                                         
     3  2  1.50        -9.5241   0.0000                                         
   Description                                                                  
     l       E           TYP  RCUT    TYP  RCUT                                 
     0    -23.9615318     23  1.200                                             
     0     -9.5240782     23  1.200                                             
     1     -9.0304911     23  1.520                                             
     1      8.1634956     23  1.520                                             
     2     -9.5240782      7  1.500                                             
  local pseudopotential read in
  partial core-charges read in
  partial kinetic energy density read in
  kinetic energy density of atom read in
  atomic valenz-charges read in
  non local Contribution for L=           0  read in
    real space projection operators read in
  non local Contribution for L=           0  read in
    real space projection operators read in
  non local Contribution for L=           1  read in
    real space projection operators read in
  non local Contribution for L=           1  read in
    real space projection operators read in
    PAW grid and wavefunctions read in
 
   number of l-projection  operators is LMAX  =           4
   number of lm-projection operators is LMMAX =           8
 
 Optimization of the real space projectors (new method)

 maximal supplied QI-value         = 25.13
 optimisation between [QCUT,QGAM] = [ 12.32, 24.88] = [ 42.47,173.37] Ry 
 Optimized for a Real-space Cutoff    1.06 Angstroem

   l    n(q)    QCUT    max X(q) W(low)/X(q) W(high)/X(q)  e(spline) 
   0      8    12.315   115.676    0.34E-03    0.18E-03    0.23E-06
   0      8    12.315    87.132    0.34E-03    0.18E-03    0.22E-06
   1      7    12.315     4.429    0.45E-03    0.12E-03    0.18E-06
   1      7    12.315     2.733    0.35E-03    0.97E-04    0.15E-06
 Optimization of the real space projectors (new method)

 maximal supplied QI-value         = 16.25
 optimisation between [QCUT,QGAM] = [ 12.51, 25.03] = [ 43.85,175.40] Ry 
 Optimized for a Real-space Cutoff    1.31 Angstroem

   l    n(q)    QCUT    max X(q) W(low)/X(q) W(high)/X(q)  e(spline) 
   2      9    12.514    46.356    0.36E-03    0.54E-03    0.48E-06
   2      9    12.514    41.843    0.37E-03    0.56E-03    0.49E-06
   0     10    12.514    48.958    0.13E-03    0.28E-03    0.23E-06
   0     10    12.514    32.776    0.12E-03    0.26E-03    0.22E-06
   1      9    12.514    17.787    0.44E-03    0.44E-04    0.36E-06
   1      9    12.514    14.435    0.39E-03    0.39E-04    0.32E-06
 Optimization of the real space projectors (new method)

 maximal supplied QI-value         = 34.20
 optimisation between [QCUT,QGAM] = [ 12.31, 24.97] = [ 42.46,174.58] Ry 
 Optimized for a Real-space Cutoff    1.00 Angstroem

   l    n(q)    QCUT    max X(q) W(low)/X(q) W(high)/X(q)  e(spline) 
   0      7    12.313    19.460    0.14E-03    0.42E-03    0.16E-06
   0      7    12.313    12.209    0.12E-03    0.40E-03    0.16E-06
   1      7    12.313     4.655    0.33E-03    0.59E-03    0.89E-07
 Optimization of the real space projectors (new method)

 maximal supplied QI-value         = 25.13
 optimisation between [QCUT,QGAM] = [ 12.32, 24.88] = [ 42.47,173.37] Ry 
 Optimized for a Real-space Cutoff    1.20 Angstroem

   l    n(q)    QCUT    max X(q) W(low)/X(q) W(high)/X(q)  e(spline) 
   0      9    12.315    79.467    0.14E-03    0.22E-04    0.37E-06
   0      9    12.315    66.151    0.14E-03    0.23E-04    0.36E-06
   1      8    12.315    22.077    0.30E-03    0.54E-03    0.45E-06
   1      8    12.315    15.894    0.30E-03    0.55E-03    0.45E-06
 Optimization of the real space projectors (new method)

 maximal supplied QI-value         = 24.76
 optimisation between [QCUT,QGAM] = [ 12.38, 25.00] = [ 42.90,175.06] Ry 
 Optimized for a Real-space Cutoff    1.13 Angstroem

   l    n(q)    QCUT    max X(q) W(low)/X(q) W(high)/X(q)  e(spline) 
   0      8    12.378    20.381    0.16E-03    0.54E-05    0.27E-06
   0      8    12.378    15.268    0.17E-03    0.61E-05    0.29E-06
   1      8    12.378     5.964    0.38E-03    0.23E-03    0.28E-06
   1      8    12.378     5.382    0.33E-03    0.20E-03    0.25E-06
  PAW_PBE C 08Apr2002                   :
 energy of atom  1       EATOM= -147.1560
 kinetic energy error for atom=    0.0057 (will be added to EATOM!!)
  PAW_PBE Zn 06Sep2000                  :
 energy of atom  2       EATOM=-1748.8345
 kinetic energy error for atom=    0.0020 (will be added to EATOM!!)
  PAW_PBE H 15Jun2001                   :
 energy of atom  3       EATOM=  -12.4884
 kinetic energy error for atom=    0.0004 (will be added to EATOM!!)
  PAW_PBE N 08Apr2002                   :
 energy of atom  4       EATOM= -264.5486
 kinetic energy error for atom=    0.0103 (will be added to EATOM!!)
  PAW_PBE O 08Apr2002                   :
 energy of atom  5       EATOM= -432.3788
 kinetic energy error for atom=    0.0168 (will be added to EATOM!!)
 
 
 POSCAR: Zn_H
  positions in direct lattice
  velocities in cartesian coordinates
 exchange correlation table for  LEXCH =        8
   RHO(1)=    0.500       N(1)  =     2000
   RHO(2)=  100.500       N(2)  =     4000
 


--------------------------------------------------------------------------------------------------------


 ion  position               nearest neighbor table
   1  0.931  0.967  0.148- 107 1.08 117 1.34  65 1.40
   2  0.903  0.957  0.431- 112 1.08 118 1.35  65 1.40
   3  0.931  0.789  0.897- 116 1.08 119 1.34  66 1.40
   4  0.569  0.467  0.648- 110 1.08 120 1.34  67 1.40
   5  0.596  0.298  0.114- 111 1.08 121 1.35  68 1.40
   6  0.096  0.798  0.113- 115 1.08 122 1.35  69 1.40
   7  0.596  0.457  0.931- 101 1.08 123 1.35  67 1.40
   8  0.569  0.289  0.397- 113 1.08 124 1.34  68 1.40
   9  0.403  0.457  0.432- 114 1.08 125 1.35  70 1.40
  10  0.069  0.788  0.397- 104 1.08 126 1.34  69 1.40
  11  0.096  0.957  0.931- 105 1.08 127 1.35  71 1.40
  12  0.403  0.298  0.614- 102 1.08 128 1.35  72 1.40
  13  0.903  0.798  0.613- 108 1.08 129 1.35  66 1.40
  14  0.069  0.967  0.648- 109 1.08 130 1.34  71 1.40
  15  0.431  0.289  0.897- 106 1.08 131 1.34  72 1.40
  16  0.431  0.467  0.149- 103 1.08 132 1.34  70 1.40
  17  0.823  0.024  0.113- 141 1.23 133 1.42  33 1.48
  18  0.841  0.067  0.455- 142 1.23 133 1.42  34 1.49
  19  0.840  0.689  0.589- 143 1.23 134 1.42  35 1.49
  20  0.659  0.567  0.955- 144 1.23 135 1.42  36 1.49
  21  0.659  0.189  0.090- 145 1.23 136 1.42  37 1.49
  22  0.177  0.732  0.432- 146 1.23 137 1.42  38 1.48
  23  0.677  0.524  0.613- 147 1.23 135 1.42  39 1.48
  24  0.677  0.232  0.432- 148 1.23 136 1.42  40 1.48
  25  0.323  0.524  0.113- 149 1.23 138 1.42  41 1.48
  26  0.159  0.689  0.090- 150 1.23 137 1.42  42 1.49
  27  0.159  0.067  0.955- 151 1.23 139 1.42  43 1.49
  28  0.341  0.189  0.590- 152 1.23 140 1.42  44 1.49
  29  0.823  0.732  0.932- 153 1.23 134 1.42  45 1.48
  30  0.177  0.023  0.613- 154 1.23 139 1.42  46 1.48
  31  0.323  0.232  0.932- 155 1.23 140 1.42  47 1.48
  32  0.341  0.567  0.456- 156 1.23 138 1.42  48 1.49
  33  0.781  0.066  0.111-  49 1.39  73 1.41  17 1.48
  34  0.799  0.109  0.445-  50 1.39  73 1.41  18 1.49
  35  0.799  0.647  0.600-  51 1.39  74 1.41  19 1.49
  36  0.701  0.609  0.945-  52 1.39  75 1.41  20 1.49
  37  0.701  0.147  0.100-  53 1.39  76 1.41  21 1.49
  38  0.219  0.690  0.434-  54 1.39  77 1.41  22 1.48
  39  0.719  0.566  0.611-  55 1.39  75 1.41  23 1.48
  40  0.719  0.190  0.434-  56 1.39  76 1.41  24 1.48
  41  0.281  0.566  0.112-  57 1.39  78 1.41  25 1.48
  42  0.201  0.647  0.100-  58 1.39  77 1.41  26 1.49
  43  0.201  0.109  0.945-  59 1.39  79 1.41  27 1.49
  44  0.299  0.147  0.600-  60 1.39  80 1.41  28 1.49
  45  0.781  0.690  0.933-  61 1.39  74 1.41  29 1.48
  46  0.219  0.066  0.611-  62 1.39  79 1.41  30 1.48
  47  0.281  0.190  0.934-  63 1.39  80 1.41  31 1.48
  48  0.299  0.609  0.445-  64 1.39  78 1.41  32 1.49
  49  0.752  0.065  0.946-  88 1.09  33 1.39  53 1.41
  50  0.788  0.151  0.604-  99 1.09  34 1.39  56 1.41
  51  0.788  0.605  0.441-  93 1.09  35 1.39  55 1.41
  52  0.712  0.651  0.104-  90 1.09  36 1.39  61 1.41
  53  0.712  0.105  0.941-  98 1.09  37 1.39  49 1.41
  54  0.248  0.691  0.599-  96 1.09  38 1.39  64 1.41
  55  0.748  0.565  0.446-  86 1.09  39 1.39  51 1.41
  56  0.748  0.191  0.599-  87 1.09  40 1.39  50 1.41
  57  0.252  0.565  0.947-  95 1.09  41 1.39  58 1.41
  58  0.212  0.605  0.941-  91 1.09  42 1.39  57 1.41
  59  0.212  0.150  0.104-  92 1.09  43 1.39  63 1.41
  60  0.288  0.105  0.441-  85 1.09  44 1.39  62 1.41
  61  0.752  0.691  0.098-  89 1.09  45 1.39  52 1.41
  62  0.248  0.065  0.446- 100 1.09  46 1.39  60 1.41
  63  0.252  0.191  0.099-  94 1.09  47 1.39  59 1.41
  64  0.288  0.651  0.604-  97 1.09  48 1.39  54 1.41
  65  0.893  0.987  0.290-   1 1.40   2 1.40 133 1.43
  66  0.892  0.769  0.755-   3 1.40  13 1.40 134 1.43
  67  0.607  0.487  0.790-   4 1.40   7 1.40 135 1.43
  68  0.607  0.269  0.255-   8 1.40   5 1.40 136 1.43
  69  0.107  0.769  0.255-  10 1.40   6 1.40 137 1.43
  70  0.393  0.487  0.290-  16 1.40   9 1.40 138 1.43
  71  0.107  0.986  0.790-  14 1.40  11 1.40 139 1.43
  72  0.392  0.269  0.755-  15 1.40  12 1.40 140 1.43
  73  0.770  0.108  0.275-  33 1.41  34 1.41  76 1.43
  74  0.770  0.648  0.769-  45 1.41  35 1.41  75 1.43
  75  0.730  0.608  0.775-  39 1.41  36 1.41  74 1.43
  76  0.730  0.148  0.270-  40 1.41  37 1.41  73 1.43
  77  0.230  0.648  0.270-  38 1.41  42 1.41  78 1.43
  78  0.270  0.607  0.276-  41 1.41  48 1.41  77 1.43
  79  0.230  0.107  0.775-  46 1.41  43 1.41  80 1.43
  80  0.270  0.148  0.770-  47 1.41  44 1.41  79 1.43
  81  0.012  0.878  0.022- 122 1.99 127 2.00 117 2.02 119 2.03
  82  0.987  0.878  0.522- 118 1.99 129 2.00 130 2.02 126 2.03
  83  0.487  0.378  0.523- 125 1.99 128 2.00 120 2.02 124 2.03
  84  0.512  0.378  0.023- 123 1.99 121 1.99 132 2.02 131 2.03
  85  0.311  0.105  0.312-  60 1.09
  86  0.739  0.533  0.322-  55 1.09
  87  0.739  0.223  0.723-  56 1.09
  88  0.761  0.033  0.822-  49 1.09
  89  0.761  0.723  0.223-  61 1.09
  90  0.689  0.651  0.233-  52 1.09
  91  0.189  0.605  0.812-  58 1.09
  92  0.189  0.151  0.233-  59 1.09
  93  0.810  0.605  0.312-  51 1.09
  94  0.261  0.223  0.223-  63 1.09
  95  0.261  0.533  0.822-  57 1.09
  96  0.239  0.723  0.723-  54 1.09
  97  0.311  0.651  0.733-  64 1.09
  98  0.689  0.105  0.812-  53 1.09
  99  0.811  0.151  0.733-  50 1.09
 100  0.239  0.033  0.322-  62 1.09
 101  0.616  0.460  0.068-   7 1.08
 102  0.384  0.296  0.478-  12 1.08
 103  0.437  0.478  0.013-  16 1.08
 104  0.063  0.778  0.532-  10 1.08
 105  0.116  0.960  0.067-  11 1.08
 106  0.437  0.278  0.033-  15 1.08
 107  0.937  0.978  0.012-   1 1.08
 108  0.884  0.796  0.477-  13 1.08
 109  0.063  0.978  0.513-  14 1.08
 110  0.563  0.478  0.513-   4 1.08
 111  0.616  0.296  0.978-   5 1.08
 112  0.884  0.960  0.567-   2 1.08
 113  0.563  0.278  0.533-   8 1.08
 114  0.384  0.460  0.568-   9 1.08
 115  0.116  0.795  0.977-   6 1.08
 116  0.937  0.778  0.032-   3 1.08
 117  0.962  0.929  0.201-   1 1.34 118 1.37  81 2.02
 118  0.945  0.923  0.375-   2 1.35 117 1.37  82 1.99
 119  0.962  0.827  0.843-   3 1.34 129 1.37  81 2.03
 120  0.537  0.429  0.702-   4 1.34 123 1.37  83 2.02
 121  0.554  0.333  0.170-   5 1.35 124 1.37  84 1.99
 122  0.054  0.833  0.169-   6 1.35 126 1.37  81 1.99
 123  0.554  0.423  0.876-   7 1.35 120 1.37  84 1.99
 124  0.537  0.327  0.344-   8 1.34 121 1.37  83 2.03
 125  0.445  0.423  0.376-   9 1.35 132 1.37  83 1.99
 126  0.037  0.827  0.343-  10 1.34 122 1.37  82 2.03
 127  0.054  0.923  0.875-  11 1.35 130 1.37  81 2.00
 128  0.445  0.333  0.670-  12 1.35 131 1.37  83 2.00
 129  0.945  0.833  0.669-  13 1.35 119 1.37  82 2.00
 130  0.037  0.929  0.701-  14 1.34 127 1.37  82 2.02
 131  0.462  0.327  0.844-  15 1.34 128 1.37  84 2.03
 132  0.462  0.429  0.202-  16 1.34 125 1.37  84 2.02
 133  0.851  0.027  0.286-  18 1.42  17 1.42  65 1.43
 134  0.851  0.729  0.758-  19 1.42  29 1.42  66 1.43
 135  0.648  0.527  0.787-  20 1.42  23 1.42  67 1.43
 136  0.649  0.229  0.259-  21 1.42  24 1.42  68 1.43
 137  0.148  0.729  0.258-  26 1.42  22 1.42  69 1.43
 138  0.351  0.527  0.287-  32 1.42  25 1.42  70 1.43
 139  0.149  0.027  0.786-  27 1.42  30 1.42  71 1.43
 140  0.351  0.229  0.759-  28 1.42  31 1.42  72 1.43
 141  0.834  0.987  0.972-  17 1.23
 142  0.865  0.066  0.602-  18 1.23
 143  0.865  0.690  0.442-  19 1.23
 144  0.635  0.566  0.103-  20 1.23
 145  0.635  0.190  0.942-  21 1.23
 146  0.166  0.768  0.573-  22 1.23
 147  0.666  0.487  0.472-  23 1.23
 148  0.666  0.268  0.573-  24 1.23
 149  0.334  0.487  0.973-  25 1.23
 150  0.135  0.690  0.942-  26 1.23
 151  0.135  0.066  0.103-  27 1.23
 152  0.365  0.190  0.442-  28 1.23
 153  0.833  0.768  0.073-  29 1.23
 154  0.166  0.987  0.472-  30 1.23
 155  0.334  0.268  0.073-  31 1.23
 156  0.365  0.566  0.603-  32 1.23
 

IMPORTANT INFORMATION: All symmetrisations will be switched off!
NOSYMM: (Re-)initialisation of all symmetry stuff for point group C_1.


----------------------------------------------------------------------------------------

                                     Primitive cell                                     

  volume of cell :    4328.8266

  direct lattice vectors                    reciprocal lattice vectors
    24.724126913 -0.001851745 -0.001685155     0.040446322 -0.000002847 -0.000003223
     0.001383516 24.415247746 -4.207936947     0.000003242  0.041329090  0.002153067
     0.000550034 -0.376970029  7.236108366     0.000011305  0.024033664  0.139447879

  length of vectors
    24.724127039 24.775210549  7.245920990     0.040446322  0.041385135  0.141503810

  position of ions in fractional coordinates (direct lattice)
     0.930867849  0.967221352  0.147851647
     0.903393529  0.957420305  0.430942993
     0.930723703  0.788548044  0.896568811
     0.568888614  0.467261135  0.648437809
     0.596448603  0.298379277  0.113976847
     0.096406444  0.798240223  0.113436238
     0.596410765  0.457433589  0.931448302
     0.569030292  0.288578722  0.397123632
     0.403351942  0.457410358  0.431565202
     0.068919170  0.788484715  0.396568112
     0.096449932  0.957307559  0.930906120
     0.403345689  0.298342936  0.614041947
     0.903273165  0.798361940  0.613463042
     0.068979024  0.967176861  0.647897024
     0.430758324  0.288596136  0.897258365
     0.430866473  0.467286425  0.148596293
     0.823187586  0.023602229  0.112942797
     0.840733593  0.066704369  0.455028354
     0.840412045  0.689202636  0.589470828
     0.659086367  0.566706552  0.955326608
     0.659286431  0.189221363  0.089795579
     0.176608193  0.732140525  0.431818685
     0.676581162  0.523560115  0.613214894
     0.676781917  0.232264302  0.431966307
     0.323135282  0.523533729  0.113498195
     0.159190143  0.689043831  0.089660906
     0.159158059  0.066569677  0.955125477
     0.340565738  0.189151244  0.589962689
     0.822984200  0.732267019  0.931654059
     0.176708086  0.023481413  0.613030344
     0.323064575  0.232190423  0.932115958
     0.340608701  0.566673200  0.455617775
     0.780944632  0.066082268  0.111269817
     0.799023902  0.109118068  0.444913568
     0.798695999  0.646806558  0.599708548
     0.700770625  0.609124322  0.945020773
     0.701019161  0.146829734  0.099883667
     0.218897529  0.689717612  0.433654488
     0.718805227  0.566046963  0.611364341
     0.719079879  0.189834858  0.433580086
     0.280853777  0.565964271  0.111695764
     0.200916219  0.646662619  0.099961274
     0.200866746  0.108986399  0.945049961
     0.298859365  0.146733940  0.600057647
     0.780680638  0.689851341  0.933395465
     0.218954773  0.065964177  0.611382148
     0.280791344  0.189734650  0.933732378
     0.298867607  0.609046649  0.445358268
     0.751914819  0.065237765  0.946284946
     0.788024415  0.150631654  0.603949058
     0.787656948  0.605286821  0.440731946
     0.711777250  0.650665561  0.103968173
     0.712052510  0.105333298  0.940824547
     0.247905066  0.690608399  0.598715802
     0.747809317  0.565188100  0.446311090
     0.748136997  0.190704348  0.598525340
     0.251838011  0.565069016  0.946645732
     0.211971562  0.605139758  0.941001478
     0.211861986  0.150497340  0.104091247
     0.287843222  0.105235726  0.440988863
     0.751639191  0.690749383  0.098406729
     0.247988676  0.065132830  0.446411410
     0.251733855  0.190587557  0.098682565
     0.287801543  0.650556643  0.604331183
     0.892541830  0.986542463  0.289610287
     0.892360448  0.769276616  0.754853352
     0.607240518  0.486560135  0.790107282
     0.607369253  0.269290324  0.255351173
     0.107273761  0.769162174  0.254889749
     0.392510872  0.486558837  0.290299343
     0.107320265  0.986447752  0.789640352
     0.392432666  0.269271093  0.755471549
     0.770168891  0.107587982  0.275260056
     0.769876691  0.648343704  0.769436766
     0.729590940  0.607575105  0.775293397
     0.729867742  0.148352778  0.269550406
     0.229730803  0.648222805  0.269711201
     0.270044023  0.607485403  0.275625377
     0.229718750  0.107469160  0.775402348
     0.270010732  0.148243070  0.769706273
     0.012470475  0.877852080  0.022318277
     0.987305293  0.877896957  0.522337016
     0.487310759  0.377923366  0.522926672
     0.512480382  0.377940137  0.022946209
     0.310644551  0.104727743  0.311937570
     0.738557472  0.532966103  0.321620072
     0.738885042  0.222902297  0.723286443
     0.761161907  0.033036289  0.821536821
     0.760886632  0.722972212  0.223083948
     0.688962025  0.651211964  0.233013787
     0.189181655  0.604579017  0.811893398
     0.189026979  0.151020139  0.233082320
     0.810432840  0.604752897  0.311607963
     0.260967130  0.222782182  0.223458789
     0.261111940  0.532843165  0.821987533
     0.238608850  0.722804775  0.723428821
     0.310587668  0.651119254  0.733443701
     0.689251499  0.104809418  0.811768806
     0.810856113  0.151171994  0.732950129
     0.238752254  0.032926909  0.321656989
     0.615703990  0.460148639  0.067657163
     0.384092881  0.295590889  0.477745946
     0.436754203  0.478243766  0.013241700
     0.063046114  0.777558060  0.531968445
     0.115729786  0.959999983  0.067126446
     0.436597122  0.277674925  0.032682352
     0.936733134  0.978141879  0.012426185
     0.883994155  0.795655572  0.477230040
     0.063117297  0.978124935  0.512510335
     0.562995481  0.478195034  0.513048208
     0.615700997  0.295651221  0.977686187
     0.884121085  0.960147852  0.567193639
     0.563193856  0.277632983  0.532511786
     0.384051708  0.460096972  0.567751525
     0.115678630  0.795484416  0.977165419
     0.936573207  0.777600825  0.031941729
     0.962363123  0.929106781  0.201019694
     0.945330372  0.922843927  0.375116262
     0.962290636  0.826600667  0.843346861
     0.537395747  0.429154691  0.701662300
     0.554472329  0.332902387  0.169806206
     0.054445868  0.832798221  0.169170541
     0.554458643  0.422872493  0.875696057
     0.537470491  0.326644462  0.343964500
     0.445311684  0.422862065  0.375751017
     0.037404458  0.826566998  0.343311471
     0.054486876  0.922769241  0.875067983
     0.445307621  0.332890500  0.669847235
     0.945269466  0.832871301  0.669226304
     0.037456181  0.929074693  0.701019249
     0.462306416  0.326663490  0.844040008
     0.462370899  0.429173559  0.201736389
     0.851380404  0.026628272  0.286201894
     0.851144243  0.729244421  0.758320444
     0.648408656  0.526624351  0.786546913
     0.648582861  0.229248951  0.258703517
     0.148461703  0.729107937  0.258447635
     0.351310754  0.526602689  0.286820888
     0.148504681  0.026511693  0.786269852
     0.351246009  0.229200497  0.758845835
     0.833609615  0.987429442  0.972057635
     0.864994657  0.065913691  0.602464595
     0.864610892  0.689991561  0.441925901
     0.634872593  0.565914039  0.102836837
     0.635057400  0.190018604  0.942315882
     0.166108870  0.768273130  0.572731934
     0.666154653  0.487352648  0.472436778
     0.666311015  0.268379995  0.572951271
     0.333615778  0.487371008  0.972649608
     0.134990624  0.689807612  0.942095331
     0.134898401  0.065761126  0.102553267
     0.364791390  0.189953047  0.442483783
     0.833496532  0.768373005  0.072622955
     0.166284397  0.987312381  0.472142047
     0.333532958  0.268304271  0.073118450
     0.364855459  0.565914532  0.603101913

  ion indices of the primitive-cell ions
   primitive index   ion index
                 1           1
                 2           2
                 3           3
                 4           4
                 5           5
                 6           6
                 7           7
                 8           8
                 9           9
                10          10
                11          11
                12          12
                13          13
                14          14
                15          15
                16          16
                17          17
                18          18
                19          19
                20          20
                21          21
                22          22
                23          23
                24          24
                25          25
                26          26
                27          27
                28          28
                29          29
                30          30
                31          31
                32          32
                33          33
                34          34
                35          35
                36          36
                37          37
                38          38
                39          39
                40          40
                41          41
                42          42
                43          43
                44          44
                45          45
                46          46
                47          47
                48          48
                49          49
                50          50
                51          51
                52          52
                53          53
                54          54
                55          55
                56          56
                57          57
                58          58
                59          59
                60          60
                61          61
                62          62
                63          63
                64          64
                65          65
                66          66
                67          67
                68          68
                69          69
                70          70
                71          71
                72          72
                73          73
                74          74
                75          75
                76          76
                77          77
                78          78
                79          79
                80          80
                81          81
                82          82
                83          83
                84          84
                85          85
                86          86
                87          87
                88          88
                89          89
                90          90
                91          91
                92          92
                93          93
                94          94
                95          95
                96          96
                97          97
                98          98
                99          99
               100         100
               101         101
               102         102
               103         103
               104         104
               105         105
               106         106
               107         107
               108         108
               109         109
               110         110
               111         111
               112         112
               113         113
               114         114
               115         115
               116         116
               117         117
               118         118
               119         119
               120         120
               121         121
               122         122
               123         123
               124         124
               125         125
               126         126
               127         127
               128         128
               129         129
               130         130
               131         131
               132         132
               133         133
               134         134
               135         135
               136         136
               137         137
               138         138
               139         139
               140         140
               141         141
               142         142
               143         143
               144         144
               145         145
               146         146
               147         147
               148         148
               149         149
               150         150
               151         151
               152         152
               153         153
               154         154
               155         155
               156         156

----------------------------------------------------------------------------------------

 
 

Automatic generation of k-mesh.
 generate k-points for:    1    1    3
Space group operators:
 irot       det(A)        alpha          n_x          n_y          n_z        tau_x        tau_y        tau_z
    1     1.000000     0.000000     1.000000     0.000000     0.000000     0.000000     0.000000     0.000000
 
 Subroutine IBZKPT returns following result:
 ===========================================
 
 Found      2 irreducible k-points:
 
 Following reciprocal coordinates:
            Coordinates               Weight
  0.000000  0.000000  0.000000      1.000000
  0.000000 -0.000000  0.333333      2.000000
 
 Following cartesian coordinates:
            Coordinates               Weight
  0.000000  0.000000  0.000000      1.000000
  0.000004  0.008011  0.046483      2.000000
 


--------------------------------------------------------------------------------------------------------




 Dimension of arrays:
   k-points           NKPTS =      2   k-points in BZ     NKDIM =      2   number of bands    NBANDS=    400
   number of dos      NEDOS =    301   number of ions     NIONS =    156
   non local maximal  LDIM  =      6   non local SUM 2l+1 LMDIM =     18
   total plane-waves  NPLWV = ******
   max r-space proj   IRMAX =   2381   max aug-charges    IRDMAX=   7635
   dimension x,y,z NGX =   150 NGY =  150 NGZ =   48
   dimension x,y,z NGXF=   300 NGYF=  300 NGZF=   96
   support grid    NGXF=   300 NGYF=  300 NGZF=   96
   ions per type =              80   4  32  24  16
   NGX,Y,Z   is equivalent  to a cutoff of  10.09, 10.07, 11.01 a.u.
   NGXF,Y,Z  is equivalent  to a cutoff of  20.17, 20.13, 22.03 a.u.

 SYSTEM =  flex_MOF                                
 POSCAR =  Zn_H                                    

 Startparameter for this run:
   NWRITE =      2    write-flag & timer
   PREC   = normal    normal or accurate (medium, high low for compatibility)
   ISTART =      0    job   : 0-new  1-cont  2-samecut
   ICHARG =      2    charge: 1-file 2-atom 10-const
   ISPIN  =      1    spin polarized calculation?
   LNONCOLLINEAR =      F non collinear calculations
   LSORBIT =      F    spin-orbit coupling
   INIWAV =      1    electr: 0-lowe 1-rand  2-diag
   LASPH  =      F    aspherical Exc in radial PAW
   METAGGA=      F    non-selfconsistent MetaGGA calc.

 Electronic Relaxation 1
   ENCUT  =  600.0 eV  44.10 Ry    6.64 a.u.  49.38 49.48 14.47*2*pi/ulx,y,z
   ENINI  =  600.0     initial cutoff
   ENAUG  =  644.9 eV  augmentation charge cutoff
   NELM   =     80;   NELMIN=  4; NELMDL=-12     # of ELM steps 
   EDIFF  = 0.1E-05   stopping-criterion for ELM
   LREAL  =      T    real-space projection
   NLSPLINE    = F    spline interpolate recip. space projectors
   LCOMPAT=      F    compatible to vasp.4.4
   GGA_COMPAT  = T    GGA compatible to vasp.4.4-vasp.4.6
   LMAXPAW     = -100 max onsite density
   LMAXMIX     =    2 max onsite mixed and CHGCAR
   VOSKOWN=      0    Vosko Wilk Nusair interpolation
   ROPT   =   -0.00050  -0.00050  -0.00050  -0.00050
   ROPT   =   -0.00050
 Ionic relaxation
   EDIFFG = -.1E-01   stopping-criterion for IOM
   NSW    =   1000    number of steps for IOM
   NBLOCK =      1;   KBLOCK =   1000    inner block; outer block 
   IBRION =      1    ionic relax: 0-MD 1-quasi-New 2-CG
   NFREE  =      0    steps in history (QN), initial steepest desc. (CG)
   ISIF   =      4    stress and relaxation
   IWAVPR =     11    prediction:  0-non 1-charg 2-wave 3-comb
   ISYM   =      0    0-nonsym 1-usesym 2-fastsym
   LCORR  =      T    Harris-Foulkes like correction to forces

   POTIM  = 0.5000    time-step for ionic-motion
   TEIN   =    0.0    initial temperature
   TEBEG  =    0.0;   TEEND  =   0.0 temperature during run
   SMASS  =  -3.00    Nose mass-parameter (am)
   estimated Nose-frequenzy (Omega)   =  0.10E-29 period in steps = 0.13E+47 mass=  -0.140E-25a.u.
   SCALEE = 1.0000    scale energy and forces
   NPACO  =    256;   APACO  = 16.0  distance and # of slots for P.C.
   PSTRESS=    0.0 pullay stress

  Mass of Ions in am
   POMASS =  12.01 65.39  1.00 14.00 16.00
  Ionic Valenz
   ZVAL   =   4.00 12.00  1.00  5.00  6.00
  Atomic Wigner-Seitz radii
   RWIGS  =  -1.00 -1.00 -1.00 -1.00 -1.00
  virtual crystal weights 
   VCA    =   1.00  1.00  1.00  1.00  1.00
   NELECT =     616.0000    total number of electrons
   NUPDOWN=      -1.0000    fix difference up-down

 DOS related values:
   EMIN   =  10.00;   EMAX   =-10.00  energy-range for DOS
   EFERMI =   0.00
   ISMEAR =     0;   SIGMA  =   0.05  broadening in eV -4-tet -1-fermi 0-gaus

 Electronic relaxation 2 (details)
   IALGO  =     48    algorithm
   LDIAG  =      T    sub-space diagonalisation (order eigenvalues)
   LSUBROT=      F    optimize rotation matrix (better conditioning)
   TURBO    =      0    0=normal 1=particle mesh
   IRESTART =      0    0=no restart 2=restart with 2 vectors
   NREBOOT  =      0    no. of reboots
   NMIN     =      0    reboot dimension
   EREF     =   0.00    reference energy to select bands
   IMIX   =      4    mixing-type and parameters
     AMIX     =   0.40;   BMIX     =  1.00
     AMIX_MAG =   1.60;   BMIX_MAG =  1.00
     AMIN     =   0.10
     WC   =   100.;   INIMIX=   1;  MIXPRE=   1;  MAXMIX= -45

 Intra band minimization:
   WEIMIN = 0.0010     energy-eigenvalue tresh-hold
   EBREAK =  0.63E-09  absolut break condition
   DEPER  =   0.30     relativ break condition  

   TIME   =   0.40     timestep for ELM

  volume/ion in A,a.u.               =      27.75       187.26
  Fermi-wavevector in a.u.,A,eV,Ry     =   0.854696  1.615141  9.939127  0.730505
  Thomas-Fermi vector in A             =   1.971332
 
 Write flags
   LWAVE        =      T    write WAVECAR
   LDOWNSAMPLE  =      F    k-point downsampling of WAVECAR
   LCHARG       =      T    write CHGCAR
   LVTOT        =      F    write LOCPOT, total local potential
   LVHAR        =      F    write LOCPOT, Hartree potential only
   LELF         =      F    write electronic localiz. function (ELF)
   LORBIT       =      0    0 simple, 1 ext, 2 COOP (PROOUT), +10 PAW based schemes


 Dipole corrections
   LMONO  =      F    monopole corrections only (constant potential shift)
   LDIPOL =      F    correct potential (dipole corrections)
   IDIPOL =      0    1-x, 2-y, 3-z, 4-all directions 
   EPSILON=  1.0000000 bulk dielectric constant

 Exchange correlation treatment:
   GGA     =    PE    GGA type
   LEXCH   =     8    internal setting for exchange type
   VOSKOWN=      0    Vosko Wilk Nusair interpolation
   LHFCALC =     F    Hartree Fock is set to
   LHFONE  =     F    Hartree Fock one center treatment
   AEXX    =    0.0000 exact exchange contribution

 Linear response parameters
   LEPSILON=     F    determine dielectric tensor
   LRPA    =     F    only Hartree local field effects (RPA)
   LNABLA  =     F    use nabla operator in PAW spheres
   LVEL    =     F    velocity operator in full k-point grid
   LINTERFAST=   F  fast interpolation
   KINTER  =     0    interpolate to denser k-point grid
   CSHIFT  =0.1000    complex shift for real part using Kramers Kronig
   OMEGAMAX=  -1.0    maximum frequency
   DEG_THRESHOLD= 0.2000000E-02 threshold for treating states as degnerate
   RTIME   =   -0.100 relaxation time in fs
  (WPLASMAI=    0.000 imaginary part of plasma frequency in eV, 0.658/RTIME)
   DFIELD  = 0.0000000 0.0000000 0.0000000 field for delta impulse in time
 
 Orbital magnetization related:
   ORBITALMAG=     F  switch on orbital magnetization
   LCHIMAG   =     F  perturbation theory with respect to B field
   DQ        =  0.001000  dq finite difference perturbation B field
   LLRAUG    =     F  two centre corrections for induced B field



--------------------------------------------------------------------------------------------------------


 quasi-Newton-method for relaxation of ions
 charge density and potential will be updated during run
 non-spin polarized calculation
 RMM-DIIS sequential band-by-band
 perform sub-space diagonalisation
    before iterative eigenvector-optimisation
 modified Broyden-mixing scheme, WC =      100.0
 initial mixing is a Kerker type mixing with AMIX =  0.4000 and BMIX =      1.0000
 Hartree-type preconditioning will be used
 using additional bands           92
 real space projection scheme for non local part
 use partial core corrections
 calculate Harris-corrections to forces 
   (improved forces if not selfconsistent)
 use gradient corrections 
 use of overlap-Matrix (Vanderbilt PP)
 Gauss-broadening in eV      SIGMA  =   0.05


--------------------------------------------------------------------------------------------------------


  energy-cutoff  :      600.00
  volume of cell :     4328.83
      direct lattice vectors                 reciprocal lattice vectors
    24.724126913 -0.001851745 -0.001685155     0.040446322 -0.000002847 -0.000003223
     0.001383516 24.415247746 -4.207936947     0.000003242  0.041329090  0.002153067
     0.000550034 -0.376970029  7.236108366     0.000011305  0.024033664  0.139447879

  length of vectors
    24.724127039 24.775210549  7.245920990     0.040446322  0.041385135  0.141503810


 
 k-points in units of 2pi/SCALE and weight: read from INCAR                         
   0.00000000  0.00000000  0.00000000       0.333
   0.00000377  0.00801122  0.04648263       0.667
 
 k-points in reciprocal lattice and weights: read from INCAR                         
   0.00000000  0.00000000  0.00000000       0.333
   0.00000000 -0.00000000  0.33333333       0.667
 
 position of ions in fractional coordinates (direct lattice) 
   0.93086785  0.96722135  0.14785165
   0.90339353  0.95742031  0.43094299
   0.93072370  0.78854804  0.89656881
   0.56888861  0.46726114  0.64843781
   0.59644860  0.29837928  0.11397685
   0.09640644  0.79824022  0.11343624
   0.59641076  0.45743359  0.93144830
   0.56903029  0.28857872  0.39712363
   0.40335194  0.45741036  0.43156520
   0.06891917  0.78848471  0.39656811
   0.09644993  0.95730756  0.93090612
   0.40334569  0.29834294  0.61404195
   0.90327317  0.79836194  0.61346304
   0.06897902  0.96717686  0.64789702
   0.43075832  0.28859614  0.89725836
   0.43086647  0.46728643  0.14859629
   0.82318759  0.02360223  0.11294280
   0.84073359  0.06670437  0.45502835
   0.84041204  0.68920264  0.58947083
   0.65908637  0.56670655  0.95532661
   0.65928643  0.18922136  0.08979558
   0.17660819  0.73214053  0.43181869
   0.67658116  0.52356012  0.61321489
   0.67678192  0.23226430  0.43196631
   0.32313528  0.52353373  0.11349820
   0.15919014  0.68904383  0.08966091
   0.15915806  0.06656968  0.95512548
   0.34056574  0.18915124  0.58996269
   0.82298420  0.73226702  0.93165406
   0.17670809  0.02348141  0.61303034
   0.32306458  0.23219042  0.93211596
   0.34060870  0.56667320  0.45561778
   0.78094463  0.06608227  0.11126982
   0.79902390  0.10911807  0.44491357
   0.79869600  0.64680656  0.59970855
   0.70077063  0.60912432  0.94502077
   0.70101916  0.14682973  0.09988367
   0.21889753  0.68971761  0.43365449
   0.71880523  0.56604696  0.61136434
   0.71907988  0.18983486  0.43358009
   0.28085378  0.56596427  0.11169576
   0.20091622  0.64666262  0.09996127
   0.20086675  0.10898640  0.94504996
   0.29885937  0.14673394  0.60005765
   0.78068064  0.68985134  0.93339547
   0.21895477  0.06596418  0.61138215
   0.28079134  0.18973465  0.93373238
   0.29886761  0.60904665  0.44535827
   0.75191482  0.06523776  0.94628495
   0.78802441  0.15063165  0.60394906
   0.78765695  0.60528682  0.44073195
   0.71177725  0.65066556  0.10396817
   0.71205251  0.10533330  0.94082455
   0.24790507  0.69060840  0.59871580
   0.74780932  0.56518810  0.44631109
   0.74813700  0.19070435  0.59852534
   0.25183801  0.56506902  0.94664573
   0.21197156  0.60513976  0.94100148
   0.21186199  0.15049734  0.10409125
   0.28784322  0.10523573  0.44098886
   0.75163919  0.69074938  0.09840673
   0.24798868  0.06513283  0.44641141
   0.25173386  0.19058756  0.09868256
   0.28780154  0.65055664  0.60433118
   0.89254183  0.98654246  0.28961029
   0.89236045  0.76927662  0.75485335
   0.60724052  0.48656013  0.79010728
   0.60736925  0.26929032  0.25535117
   0.10727376  0.76916217  0.25488975
   0.39251087  0.48655884  0.29029934
   0.10732026  0.98644775  0.78964035
   0.39243267  0.26927109  0.75547155
   0.77016889  0.10758798  0.27526006
   0.76987669  0.64834370  0.76943677
   0.72959094  0.60757510  0.77529340
   0.72986774  0.14835278  0.26955041
   0.22973080  0.64822280  0.26971120
   0.27004402  0.60748540  0.27562538
   0.22971875  0.10746916  0.77540235
   0.27001073  0.14824307  0.76970627
   0.01247047  0.87785208  0.02231828
   0.98730529  0.87789696  0.52233702
   0.48731076  0.37792337  0.52292667
   0.51248038  0.37794014  0.02294621
   0.31064455  0.10472774  0.31193757
   0.73855747  0.53296610  0.32162007
   0.73888504  0.22290230  0.72328644
   0.76116191  0.03303629  0.82153682
   0.76088663  0.72297221  0.22308395
   0.68896203  0.65121196  0.23301379
   0.18918166  0.60457902  0.81189340
   0.18902698  0.15102014  0.23308232
   0.81043284  0.60475290  0.31160796
   0.26096713  0.22278218  0.22345879
   0.26111194  0.53284316  0.82198753
   0.23860885  0.72280477  0.72342882
   0.31058767  0.65111925  0.73344370
   0.68925150  0.10480942  0.81176881
   0.81085611  0.15117199  0.73295013
   0.23875225  0.03292691  0.32165699
   0.61570399  0.46014864  0.06765716
   0.38409288  0.29559089  0.47774595
   0.43675420  0.47824377  0.01324170
   0.06304611  0.77755806  0.53196845
   0.11572979  0.95999998  0.06712645
   0.43659712  0.27767492  0.03268235
   0.93673313  0.97814188  0.01242619
   0.88399415  0.79565557  0.47723004
   0.06311730  0.97812493  0.51251033
   0.56299548  0.47819503  0.51304821
   0.61570100  0.29565122  0.97768619
   0.88412109  0.96014785  0.56719364
   0.56319386  0.27763298  0.53251179
   0.38405171  0.46009697  0.56775152
   0.11567863  0.79548442  0.97716542
   0.93657321  0.77760083  0.03194173
   0.96236312  0.92910678  0.20101969
   0.94533037  0.92284393  0.37511626
   0.96229064  0.82660067  0.84334686
   0.53739575  0.42915469  0.70166230
   0.55447233  0.33290239  0.16980621
   0.05444587  0.83279822  0.16917054
   0.55445864  0.42287249  0.87569606
   0.53747049  0.32664446  0.34396450
   0.44531168  0.42286206  0.37575102
   0.03740446  0.82656700  0.34331147
   0.05448688  0.92276924  0.87506798
   0.44530762  0.33289050  0.66984724
   0.94526947  0.83287130  0.66922630
   0.03745618  0.92907469  0.70101925
   0.46230642  0.32666349  0.84404001
   0.46237090  0.42917356  0.20173639
   0.85138040  0.02662827  0.28620189
   0.85114424  0.72924442  0.75832044
   0.64840866  0.52662435  0.78654691
   0.64858286  0.22924895  0.25870352
   0.14846170  0.72910794  0.25844763
   0.35131075  0.52660269  0.28682089
   0.14850468  0.02651169  0.78626985
   0.35124601  0.22920050  0.75884583
   0.83360962  0.98742944  0.97205763
   0.86499466  0.06591369  0.60246460
   0.86461089  0.68999156  0.44192590
   0.63487259  0.56591404  0.10283684
   0.63505740  0.19001860  0.94231588
   0.16610887  0.76827313  0.57273193
   0.66615465  0.48735265  0.47243678
   0.66631102  0.26837999  0.57295127
   0.33361578  0.48737101  0.97264961
   0.13499062  0.68980761  0.94209533
   0.13489840  0.06576113  0.10255327
   0.36479139  0.18995305  0.44248378
   0.83349653  0.76837301  0.07262295
   0.16628440  0.98731238  0.47214205
   0.33353296  0.26830427  0.07311845
   0.36485546  0.56591453  0.60310191
 
 position of ions in cartesian coordinates  (Angst):
  23.01631433 23.55748956 -3.00170458
  22.33717790 23.21152851 -0.91193644
  23.01291508 18.91289281  3.16794021
  14.06627742 11.16280133  2.72500219
  14.74714645  7.24093364 -0.43181747
   2.38473192 19.44629222 -2.53827008
  14.74688064 10.81612191  4.81420410
  14.06939484  6.89496358  1.65834967
   9.97339482 11.00435315  1.19741891
   1.70527530 19.10142774 -0.44840027
   2.38647683 23.02179893  2.70768518
   9.97312051  7.05189439  3.18718610
  22.33408235 19.25927475  1.07810619
   1.70714062 23.36949718  0.61831759
  10.65101626  6.70710899  5.27753852
  10.65352559 11.35209964 -0.89177902
  20.35268913  0.53215390  0.71656242
  20.78674662  1.45551481  3.01052993
  20.77973181 16.60328404  1.36393733
  16.29664449 13.47493090  4.52707076
  16.30059258  4.58481538 -0.14757202
   4.36773383 17.71228258  0.04358802
  16.72894016 12.55043344  2.23304133
  16.73340094  5.50669889  2.14726099
   7.99002447 12.73882191 -1.38225622
   3.93683991 16.78908159 -2.25092523
   3.93566150  1.26496677  6.63100224
   8.42077672  4.39514560  3.47252353
  20.34909135 17.52575108  3.65882943
   4.36932282  0.34188323  4.33684791
   7.98832350  5.31700870  5.76730501
   8.42228736 13.66308160  0.91180052
  19.30832682  1.57002346  0.52577442
  19.75556403  2.49494600  2.75893436
  19.74828597 15.56439121  1.61648890
  17.32730441 14.51437908  4.27393507
  17.33234478  3.54593307  0.10373745
   5.41324305 16.67574629  0.23531377
  17.77295106 13.58837977  2.04079740
  17.77912331  4.47008683  2.33740761
   6.94470889 13.77553186 -1.57377260
   4.96842775 15.75037359 -1.99812349
   4.96692552  2.30430246  6.37953754
   7.38956994  3.35578834  3.72413137
  19.30311499 16.48958366  3.84998422
   5.41389314  1.37965354  4.14608541
   6.94309691  4.27990942  5.95772405
   7.39032824 14.70158468  0.65932716
  18.59104816  1.23468277  6.57163692
  19.48375624  3.44857925  3.73506438
  19.47521019 14.61062642  0.64084802
  17.59902846 15.84564995 -1.98683414
  17.60553984  2.21575738  6.36347258
   6.13052109 16.63521818  1.42591807
  18.48995989 13.62957684  0.85001935
  18.49762710  4.42908243  3.52726162
   6.22777743 13.43897660  4.47183193
   5.24216661 14.41951525  4.26244152
   5.23836809  3.63479824  0.11957521
   7.11706051  2.40258372  2.74773284
  18.58463254 16.82632909 -2.19581472
   6.13163916  1.42149124  2.95578860
   6.22421774  4.61557591 -0.08832690
   7.11687434 15.65515393  1.63501960
  22.06884168 23.97585149 -2.05716113
  22.06431246 18.49586964  2.22362940
  15.01459937 11.58051502  3.66886425
  15.01718752  6.47740555  0.71356855
   2.65345443 18.68300059 -1.39235686
   9.70532146 11.76929358  0.05256716
   2.65519894 23.78649679  1.56283236
   9.70334311  6.28880362  4.33293690
  19.04205365  2.52159629  1.53779030
  19.03584923 15.53799194  2.83824103
  18.03976603 14.54048332  3.05223983
  18.04569620  3.51910587  1.32500687
   5.68093870 15.72442193 -0.77640835
   6.67759477 14.72750405 -0.56226024
   5.68017071  2.33115735  5.15828486
   6.67640807  3.32873510  4.94542550
   0.30954840 21.42453961 -3.53246975
  24.41176324 21.23533806  0.08388845
  12.04914355  9.02906256  2.19285518
  12.67116551  9.21790307 -1.42517062
   7.68073177  2.43878745  1.81600284
  18.26110293 12.88989069  0.08334535
  18.26899378  5.16818927  4.29457513
  18.81956117  0.49548495  5.80443216
  18.81338060 17.56604074 -1.42924407
  17.03501368 15.81038645 -1.05530688
   4.67863426 14.45453668  3.33059943
   4.67386417  3.59897903  1.05080716
  20.03825248 14.64622424 -0.29129878
   6.45261557  5.35456166  0.67907886
   6.45695407 12.69914970  3.70538041
   5.90079340 17.37430482  2.19289034
   7.68031319 15.62017648  2.56688595
  17.04173305  2.25165907  5.43185413
  20.04832174  3.41309996  4.66621792
   5.90316350  0.68222149  2.18858814
  15.22341742 11.20799816 -1.44773945
   9.49703286  7.03611763  2.21254636
  10.79903528 11.67063955 -1.91733723
   1.56012849 18.78361977  0.57735979
   2.86268300 23.41311847 -3.55408018
  10.79488480  6.76637335 -0.93268127
  23.16126900 23.87515743 -4.02762067
  21.85734696 19.24458954  0.10373014
   1.56215520 23.68784469 -0.40741409
  13.92051551 11.48080391  1.69930914
  15.22361640  6.84869931  5.82952394
  21.86076227 23.22679552  0.06254313
  13.92515339  6.57669419  2.68410183
   9.49629201 11.01864509  2.17160532
   2.86169117 19.05337280  3.72333166
  23.15704822 18.97154143 -3.04253970
  23.79498399 22.60681178 -2.45664419
  23.37395119 22.38830502 -1.17048017
  23.79340331 19.86196167  2.62264418
  13.28762032 10.21241733  3.27054296
  13.70939822  8.06285566 -0.17303052
   1.34737179 20.26910184 -2.28031778
  13.70957257  9.99339879  4.55627643
  13.28912973  7.84444590  1.11355937
  11.01073430 10.18181060  0.93884775
   0.92612497 20.05135064 -0.99396583
   1.34889842 22.19966432  2.44904015
  11.01067114  7.87426710  3.44555454
  23.37248262 20.08073051  1.33633121
   0.92774234 22.41925619  1.16310041
  11.43103870  7.65653617  4.73220654
  11.43242153 10.40147399 -0.34692807
  21.04983141  0.54066979  1.95750312
  21.04522432 17.51724302  2.41724006
  16.03249912 12.55995869  3.47444396
  16.03610443  5.49844544  0.90624859
   3.67173688 17.70364898 -1.19813532
   8.68673800 12.74836171 -0.14103590
   3.67211774  0.35061439  5.57772407
   8.68498539  5.30927437  4.52603755
  20.61217072 23.74035423  2.87746879
  21.38666024  1.38058625  4.08068079
  21.37794712 16.67812103  0.29292573
  15.69751008 13.77698943 -1.63826196
  15.70202095  4.28295049  6.01804336
   4.10827472 18.54136845  0.91122553
  16.47102631 11.71950759  1.36673193
  16.47464455  6.33534476  3.01548855
   8.24956811 11.53200639  4.98680930
   3.33899787 16.48643208  3.91420949
   3.33539258  1.56666488  0.46514055
   9.01965481  4.47027208  2.40193543
  20.60857705 18.73109718 -2.70916216
   4.11286219 23.92718507 -0.73835745
   8.24672260  6.52253417 -0.60047648
   9.02184734 13.58891653  1.98216329
 


--------------------------------------------------------------------------------------------------------


 k-point  1 :   0.0000 0.0000 0.0000  plane waves:  144615
 k-point  2 :   0.0000-0.0000 0.3333  plane waves:  144446

 maximum and minimum number of plane-waves per node :     36196    36073

 maximum number of plane-waves:    144615
 maximum index in each direction: 
   IXMAX=   49   IYMAX=   49   IZMAX=   14
   IXMIN=  -49   IYMIN=  -49   IZMIN=  -14


 real space projection operators:
  total allocation   :      12683.84 KBytes
  max/ min on nodes  :       3207.82       3133.45


 parallel 3D FFT for wavefunctions:
    minimum data exchange during FFTs selected (reduces bandwidth)
 parallel 3D FFT for charge:
    minimum data exchange during FFTs selected (reduces bandwidth)


 total amount of memory used by VASP MPI-rank0   102249. kBytes
=======================================================================

   base      :      30000. kBytes
   nonlr-proj:       6446. kBytes
   fftplans  :      13266. kBytes
   grid      :      22747. kBytes
   one-center:        606. kBytes
   wavefun   :      29184. kBytes
 
     INWAV:  cpu time    0.0002: real time    0.0002
 Broyden mixing: mesh for mixing (old mesh)
   NGX = 99   NGY = 99   NGZ = 29
  (NGX  =300   NGY  =300   NGZ  = 96)
  gives a total of 284229 points

 initial charge density was supplied:
 charge density of overlapping atoms calculated
 number of electron     616.0000000 magnetization 
 keeping initial charge density in first step


--------------------------------------------------------------------------------------------------------


 Maximum index for non-local projection operator          674
 Maximum index for augmentation-charges          419 (set IRDMAX)


--------------------------------------------------------------------------------------------------------


 First call to EWALD:  gamma=   0.109
 Maximum number of real-space cells 2x 2x 6
 Maximum number of reciprocal cells 4x 4x 1

    FEWALD:  cpu time    0.0161: real time    0.0163


--------------------------------------- Iteration      1(   1)  ---------------------------------------


    POTLOK:  cpu time    0.2167: real time    0.2894
    SETDIJ:  cpu time    0.0442: real time    0.0447
    EDDIAG:  cpu time    2.2369: real time    2.3081
  RMM-DIIS:  cpu time    2.8362: real time    2.8416
    ORTHCH:  cpu time    0.4873: real time    0.4884
       DOS:  cpu time    0.0021: real time    0.0031
    --------------------------------------------
      LOOP:  cpu time    5.8236: real time    5.9752

 eigenvalue-minimisations  :   800
 total energy-change (2. order) : 0.8587744E+04  (-0.2113827E+05)
 number of electron     616.0000000 magnetization 
 augmentation part      616.0000000 magnetization 

 Free energy of the ion-electron system (eV)
  ---------------------------------------------------
  alpha Z        PSCENC =       446.28828583
  Ewald energy   TEWEN  =     44372.26375351
  -Hartree energ DENC   =    -71120.02327527
  -exchange      EXHF   =         0.00000000
  -V(xc)+E(xc)   XCENC  =      2270.02863531
  PAW double counting   =     25034.14638475   -25847.60581054
  entropy T*S    EENTRO =        -0.07013642
  eigenvalues    EBANDS =       999.03605327
  atomic energy  EATOM  =     32433.67991533
  Solvation  Ediel_sol  =         0.00000000
  ---------------------------------------------------
  free energy    TOTEN  =      8587.74380576 eV

  energy without entropy =     8587.81394219  energy(sigma->0) =     8587.77887397


--------------------------------------------------------------------------------------------------------




--------------------------------------- Iteration      1(   2)  ---------------------------------------


    EDDIAG:  cpu time    2.0760: real time    2.0782
  RMM-DIIS:  cpu time    2.7460: real time    2.7498
    ORTHCH:  cpu time    0.4861: real time    0.4861
       DOS:  cpu time    0.0015: real time    0.0015
    --------------------------------------------
      LOOP:  cpu time    5.3095: real time    5.3156

 eigenvalue-minimisations  :   800
 total energy-change (2. order) :-0.5270895E+04  (-0.6681619E+04)
 number of electron     616.0000000 magnetization 
 augmentation part      616.0000000 magnetization 

 Free energy of the ion-electron system (eV)
  ---------------------------------------------------
  alpha Z        PSCENC =       446.28828583
  Ewald energy   TEWEN  =     44372.26375351
  -Hartree energ DENC   =    -71120.02327527
  -exchange      EXHF   =         0.00000000
  -V(xc)+E(xc)   XCENC  =      2270.02863531
  PAW double counting   =     25034.14638475   -25847.60581054
  entropy T*S    EENTRO =        -0.00230050
  eigenvalues    EBANDS =     -4271.92645567
  atomic energy  EATOM  =     32433.67991533
  Solvation  Ediel_sol  =         0.00000000
  ---------------------------------------------------
  free energy    TOTEN  =      3316.84913275 eV

  energy without entropy =     3316.85143325  energy(sigma->0) =     3316.85028300


--------------------------------------------------------------------------------------------------------




--------------------------------------- Iteration      1(   3)  ---------------------------------------


    EDDIAG:  cpu time    2.0697: real time    2.0728
  RMM-DIIS:  cpu time    2.7322: real time    2.7355
    ORTHCH:  cpu time    0.4872: real time    0.4873
       DOS:  cpu time    0.0015: real time    0.0015
    --------------------------------------------
      LOOP:  cpu time    5.2907: real time    5.2971

 eigenvalue-minimisations  :   800
 total energy-change (2. order) :-0.2048456E+04  (-0.2981949E+04)
 number of electron     616.0000000 magnetization 
 augmentation part      616.0000000 magnetization 

 Free energy of the ion-electron system (eV)
  ---------------------------------------------------
  alpha Z        PSCENC =       446.28828583
  Ewald energy   TEWEN  =     44372.26375351
  -Hartree energ DENC   =    -71120.02327527
  -exchange      EXHF   =         0.00000000
  -V(xc)+E(xc)   XCENC  =      2270.02863531
  PAW double counting   =     25034.14638475   -25847.60581054
  entropy T*S    EENTRO =        -0.04769293
  eigenvalues    EBANDS =     -6320.33702892
  atomic energy  EATOM  =     32433.67991533
  Solvation  Ediel_sol  =         0.00000000
  ---------------------------------------------------
  free energy    TOTEN  =      1268.39316707 eV

  energy without entropy =     1268.44086000  energy(sigma->0) =     1268.41701353


--------------------------------------------------------------------------------------------------------




--------------------------------------- Iteration      1(   4)  ---------------------------------------


    EDDIAG:  cpu time    2.0705: real time    2.0739
  RMM-DIIS:  cpu time    2.7273: real time    2.7302
    ORTHCH:  cpu time    0.4848: real time    0.4848
       DOS:  cpu time    0.0018: real time    0.0018
    --------------------------------------------
      LOOP:  cpu time    5.2843: real time    5.2907

 eigenvalue-minimisations  :   800
 total energy-change (2. order) :-0.1493343E+04  (-0.1517369E+04)
 number of electron     616.0000000 magnetization 
 augmentation part      616.0000000 magnetization 

 Free energy of the ion-electron system (eV)
  ---------------------------------------------------
  alpha Z        PSCENC =       446.28828583
  Ewald energy   TEWEN  =     44372.26375351
  -Hartree energ DENC   =    -71120.02327527
  -exchange      EXHF   =         0.00000000
  -V(xc)+E(xc)   XCENC  =      2270.02863531
  PAW double counting   =     25034.14638475   -25847.60581054
  entropy T*S    EENTRO =        -0.03077135
  eigenvalues    EBANDS =     -7813.69704668
  atomic energy  EATOM  =     32433.67991533
  Solvation  Ediel_sol  =         0.00000000
  ---------------------------------------------------
  free energy    TOTEN  =      -224.94992911 eV

  energy without entropy =     -224.91915776  energy(sigma->0) =     -224.93454344


--------------------------------------------------------------------------------------------------------




--------------------------------------- Iteration      1(   5)  ---------------------------------------


    EDDIAG:  cpu time    2.0705: real time    2.0734
  RMM-DIIS:  cpu time    2.7357: real time    2.7388
    ORTHCH:  cpu time    0.4845: real time    0.4845
       DOS:  cpu time    0.0013: real time    0.0013
    --------------------------------------------
      LOOP:  cpu time    5.2920: real time    5.2980

 eigenvalue-minimisations  :   800
 total energy-change (2. order) :-0.6667899E+03  (-0.5934274E+03)
 number of electron     616.0000000 magnetization 
 augmentation part      616.0000000 magnetization 

 Free energy of the ion-electron system (eV)
  ---------------------------------------------------
  alpha Z        PSCENC =       446.28828583
  Ewald energy   TEWEN  =     44372.26375351
  -Hartree energ DENC   =    -71120.02327527
  -exchange      EXHF   =         0.00000000
  -V(xc)+E(xc)   XCENC  =      2270.02863531
  PAW double counting   =     25034.14638475   -25847.60581054
  entropy T*S    EENTRO =        -0.02496649
  eigenvalues    EBANDS =     -8480.49271974
  atomic energy  EATOM  =     32433.67991533
  Solvation  Ediel_sol  =         0.00000000
  ---------------------------------------------------
  free energy    TOTEN  =      -891.73979731 eV

  energy without entropy =     -891.71483082  energy(sigma->0) =     -891.72731406


--------------------------------------------------------------------------------------------------------




--------------------------------------- Iteration      1(   6)  ---------------------------------------


    EDDIAG:  cpu time    2.0714: real time    2.0755
  RMM-DIIS:  cpu time    2.7275: real time    2.7316
    ORTHCH:  cpu time    0.4835: real time    0.4836
       DOS:  cpu time    0.0008: real time    0.0008
    --------------------------------------------
      LOOP:  cpu time    5.2831: real time    5.2914

 eigenvalue-minimisations  :   800
 total energy-change (2. order) :-0.2405497E+03  (-0.2106746E+03)
 number of electron     616.0000000 magnetization 
 augmentation part      616.0000000 magnetization 

 Free energy of the ion-electron system (eV)
  ---------------------------------------------------
  alpha Z        PSCENC =       446.28828583
  Ewald energy   TEWEN  =     44372.26375351
  -Hartree energ DENC   =    -71120.02327527
  -exchange      EXHF   =         0.00000000
  -V(xc)+E(xc)   XCENC  =      2270.02863531
  PAW double counting   =     25034.14638475   -25847.60581054
  entropy T*S    EENTRO =        -0.00000000
  eigenvalues    EBANDS =     -8721.06738377
  atomic energy  EATOM  =     32433.67991533
  Solvation  Ediel_sol  =         0.00000000
  ---------------------------------------------------
  free energy    TOTEN  =     -1132.28949485 eV

  energy without entropy =    -1132.28949485  energy(sigma->0) =    -1132.28949485


--------------------------------------------------------------------------------------------------------




--------------------------------------- Iteration      1(   7)  ---------------------------------------


    EDDIAG:  cpu time    2.0673: real time    2.0694
  RMM-DIIS:  cpu time    2.7305: real time    2.7335
    ORTHCH:  cpu time    0.4855: real time    0.4865
       DOS:  cpu time    0.0008: real time    0.0007
    --------------------------------------------
      LOOP:  cpu time    5.2840: real time    5.2901

 eigenvalue-minimisations  :   800
 total energy-change (2. order) :-0.6809014E+02  (-0.6387712E+02)
 number of electron     616.0000000 magnetization 
 augmentation part      616.0000000 magnetization 

 Free energy of the ion-electron system (eV)
  ---------------------------------------------------
  alpha Z        PSCENC =       446.28828583
  Ewald energy   TEWEN  =     44372.26375351
  -Hartree energ DENC   =    -71120.02327527
  -exchange      EXHF   =         0.00000000
  -V(xc)+E(xc)   XCENC  =      2270.02863531
  PAW double counting   =     25034.14638475   -25847.60581054
  entropy T*S    EENTRO =        -0.00000000
  eigenvalues    EBANDS =     -8789.15751914
  atomic energy  EATOM  =     32433.67991533
  Solvation  Ediel_sol  =         0.00000000
  ---------------------------------------------------
  free energy    TOTEN  =     -1200.37963022 eV

  energy without entropy =    -1200.37963022  energy(sigma->0) =    -1200.37963022


--------------------------------------------------------------------------------------------------------




--------------------------------------- Iteration      1(   8)  ---------------------------------------


    EDDIAG:  cpu time    2.0812: real time    2.0998
  RMM-DIIS:  cpu time    2.9454: real time    2.9494
    ORTHCH:  cpu time    0.4849: real time    0.4849
       DOS:  cpu time    0.0007: real time    0.0007
    --------------------------------------------
      LOOP:  cpu time    5.5122: real time    5.5348

 eigenvalue-minimisations  :   800
 total energy-change (2. order) :-0.2556560E+02  (-0.2184299E+02)
 number of electron     616.0000000 magnetization 
 augmentation part      616.0000000 magnetization 

 Free energy of the ion-electron system (eV)
  ---------------------------------------------------
  alpha Z        PSCENC =       446.28828583
  Ewald energy   TEWEN  =     44372.26375351
  -Hartree energ DENC   =    -71120.02327527
  -exchange      EXHF   =         0.00000000
  -V(xc)+E(xc)   XCENC  =      2270.02863531
  PAW double counting   =     25034.14638475   -25847.60581054
  entropy T*S    EENTRO =        -0.00000000
  eigenvalues    EBANDS =     -8814.72312352
  atomic energy  EATOM  =     32433.67991533
  Solvation  Ediel_sol  =         0.00000000
  ---------------------------------------------------
  free energy    TOTEN  =     -1225.94523460 eV

  energy without entropy =    -1225.94523460  energy(sigma->0) =    -1225.94523460


--------------------------------------------------------------------------------------------------------




--------------------------------------- Iteration      1(   9)  ---------------------------------------


    EDDIAG:  cpu time    2.0661: real time    2.0683
  RMM-DIIS:  cpu time    5.6098: real time    5.6391
    ORTHCH:  cpu time    0.4831: real time    0.4832
       DOS:  cpu time    0.0010: real time    0.0010
    --------------------------------------------
      LOOP:  cpu time    8.1601: real time    8.1917

 eigenvalue-minimisations  :  1837
 total energy-change (2. order) :-0.1349197E+02  (-0.1292023E+02)
 number of electron     616.0000000 magnetization 
 augmentation part      616.0000000 magnetization 

 Free energy of the ion-electron system (eV)
  ---------------------------------------------------
  alpha Z        PSCENC =       446.28828583
  Ewald energy   TEWEN  =     44372.26375351
  -Hartree energ DENC   =    -71120.02327527
  -exchange      EXHF   =         0.00000000
  -V(xc)+E(xc)   XCENC  =      2270.02863531
  PAW double counting   =     25034.14638475   -25847.60581054
  entropy T*S    EENTRO =        -0.00000000
  eigenvalues    EBANDS =     -8828.21509010
[...]
   -.231E+02 0.170E+03 -.507E+02   0.419E+01 -.160E+03 0.626E+02   0.190E+02 -.962E+01 -.119E+02   0.189E-04 -.483E-05 -.111E-04
   -.173E+03 -.750E+02 -.953E+02   0.166E+03 0.597E+02 0.111E+03   0.713E+01 0.154E+02 -.157E+02   0.259E-05 0.149E-04 -.162E-04
   0.173E+03 0.761E+02 0.955E+02   -.166E+03 -.608E+02 -.111E+03   -.715E+01 -.153E+02 0.157E+02   -.341E-05 -.147E-04 0.177E-04
   0.173E+03 0.758E+02 0.955E+02   -.166E+03 -.605E+02 -.111E+03   -.715E+01 -.153E+02 0.157E+02   -.369E-05 -.144E-04 0.173E-04
   -.238E+02 -.170E+03 0.507E+02   0.492E+01 0.160E+03 -.625E+02   0.189E+02 0.958E+01 0.119E+02   0.189E-04 0.420E-05 0.113E-04
   0.235E+02 0.170E+03 -.509E+02   -.463E+01 -.160E+03 0.628E+02   -.190E+02 -.962E+01 -.119E+02   -.194E-04 -.380E-05 -.105E-04
   0.235E+02 -.170E+03 0.507E+02   -.457E+01 0.160E+03 -.625E+02   -.190E+02 0.959E+01 0.119E+02   -.192E-04 0.415E-05 0.985E-05
   0.878E+02 -.104E+03 -.925E+01   -.882E+02 0.104E+03 0.902E+01   0.382E+00 -.561E+00 0.226E+00   0.270E-05 0.109E-04 0.406E-05
   0.879E+02 0.103E+03 0.926E+01   -.883E+02 -.104E+03 -.903E+01   0.381E+00 0.553E+00 -.225E+00   0.300E-05 -.104E-04 -.488E-05
   -.879E+02 -.104E+03 -.920E+01   0.883E+02 0.104E+03 0.897E+01   -.383E+00 -.567E+00 0.232E+00   -.328E-05 0.106E-04 0.388E-05
   -.877E+02 0.104E+03 0.919E+01   0.881E+02 -.104E+03 -.896E+01   -.379E+00 0.558E+00 -.230E+00   -.137E-05 -.940E-05 -.125E-05
   -.876E+02 0.104E+03 0.925E+01   0.880E+02 -.104E+03 -.902E+01   -.379E+00 0.553E+00 -.227E+00   -.728E-06 -.130E-04 -.589E-05
   0.878E+02 -.104E+03 -.931E+01   -.882E+02 0.104E+03 0.908E+01   0.382E+00 -.563E+00 0.225E+00   0.374E-05 0.932E-05 0.451E-05
   -.881E+02 -.104E+03 -.921E+01   0.884E+02 0.104E+03 0.898E+01   -.383E+00 -.561E+00 0.228E+00   -.232E-05 0.132E-04 0.650E-05
   0.878E+02 0.104E+03 0.923E+01   -.882E+02 -.104E+03 -.901E+01   0.381E+00 0.551E+00 -.224E+00   0.280E-05 -.116E-04 -.479E-05
   0.220E+03 0.155E+03 0.238E+03   -.209E+03 -.192E+03 -.277E+03   -.113E+02 0.368E+02 0.388E+02   -.959E-05 0.326E-04 -.330E-04
   -.148E+03 -.249E+03 -.288E+03   0.175E+03 0.246E+03 0.336E+03   -.266E+02 0.325E+01 -.477E+02   -.209E-04 0.356E-04 0.601E-04
   -.147E+03 0.248E+03 0.288E+03   0.174E+03 -.245E+03 -.336E+03   -.265E+02 -.325E+01 0.477E+02   -.236E-04 -.349E-04 -.562E-04
   0.148E+03 -.249E+03 -.288E+03   -.174E+03 0.245E+03 0.336E+03   0.265E+02 0.325E+01 -.477E+02   0.224E-04 0.353E-04 0.572E-04
   0.148E+03 0.248E+03 0.288E+03   -.174E+03 -.245E+03 -.336E+03   0.265E+02 -.326E+01 0.477E+02   0.228E-04 -.343E-04 -.582E-04
   -.219E+03 -.155E+03 -.238E+03   0.208E+03 0.192E+03 0.276E+03   0.113E+02 -.367E+02 -.389E+02   0.937E-05 -.318E-04 0.346E-04
   -.220E+03 0.156E+03 0.238E+03   0.209E+03 -.193E+03 -.276E+03   0.113E+02 0.368E+02 0.388E+02   0.863E-05 0.324E-04 -.313E-04
   -.219E+03 -.155E+03 -.238E+03   0.208E+03 0.192E+03 0.277E+03   0.113E+02 -.367E+02 -.389E+02   0.950E-05 -.311E-04 0.338E-04
   0.220E+03 0.156E+03 0.238E+03   -.208E+03 -.192E+03 -.276E+03   -.113E+02 0.368E+02 0.388E+02   -.832E-05 0.289E-04 -.347E-04
   0.148E+03 0.249E+03 0.288E+03   -.174E+03 -.245E+03 -.336E+03   0.265E+02 -.322E+01 0.477E+02   0.221E-04 -.360E-04 -.596E-04
   0.148E+03 -.249E+03 -.288E+03   -.174E+03 0.245E+03 0.336E+03   0.265E+02 0.327E+01 -.477E+02   0.249E-04 0.367E-04 0.558E-04
   -.148E+03 0.248E+03 0.288E+03   0.174E+03 -.245E+03 -.336E+03   -.265E+02 -.326E+01 0.477E+02   -.251E-04 -.360E-04 -.559E-04
   0.219E+03 -.155E+03 -.238E+03   -.208E+03 0.192E+03 0.277E+03   -.114E+02 -.367E+02 -.389E+02   -.979E-05 -.326E-04 0.311E-04
   -.220E+03 0.156E+03 0.238E+03   0.209E+03 -.193E+03 -.277E+03   0.113E+02 0.368E+02 0.388E+02   0.104E-04 0.351E-04 -.318E-04
   0.219E+03 -.155E+03 -.238E+03   -.208E+03 0.192E+03 0.277E+03   -.113E+02 -.367E+02 -.389E+02   -.959E-05 -.326E-04 0.332E-04
   -.148E+03 -.249E+03 -.288E+03   0.174E+03 0.246E+03 0.336E+03   -.265E+02 0.322E+01 -.477E+02   -.206E-04 0.344E-04 0.613E-04
 -----------------------------------------------------------------------------------------------
   0.927E-01 -.314E+00 0.135E+00   0.881E-12 0.171E-12 0.568E-13   -.771E-01 0.337E+00 -.109E+00   0.129E-05 0.253E-04 0.158E-04
 
 
 POSITION                                       TOTAL-FORCE (eV/Angst)
 -----------------------------------------------------------------------------------
     23.01631     23.55749     -3.00170        -0.000299     -0.003447     -0.003360
     22.33718     23.21153     -0.91194         0.004527      0.000942      0.002461
     23.01292     18.91289      3.16794        -0.001525      0.003991      0.001063
     14.06628     11.16280      2.72500         0.000480     -0.003508     -0.004365
     14.74715      7.24093     -0.43182        -0.004403     -0.001020     -0.002968
      2.38473     19.44629     -2.53827        -0.005325     -0.000748     -0.000978
     14.74688     10.81612      4.81420        -0.004329      0.001729      0.003042
     14.06939      6.89496      1.65835         0.001557      0.002724      0.004511
      9.97339     11.00435      1.19742         0.005002      0.001089      0.002603
      1.70528     19.10143     -0.44840         0.000477      0.003677      0.004776
      2.38648     23.02180      2.70769        -0.004459      0.001320      0.003639
      9.97312      7.05189      3.18719         0.005553     -0.000964     -0.002608
     22.33408     19.25927      1.07811         0.006397     -0.000119     -0.002822
      1.70714     23.36950      0.61832         0.001075     -0.002233     -0.004730
     10.65102      6.70711      5.27754        -0.000555      0.004017      0.002301
     10.65353     11.35210     -0.89178         0.000361     -0.004751     -0.004523
     20.35269      0.53215      0.71656        -0.001466      0.005142     -0.000430
     20.78675      1.45551      3.01053         0.001236     -0.001164      0.001276
     20.77973     16.60328      1.36394         0.001223      0.001548      0.001056
     16.29664     13.47493      4.52707         0.002656      0.000799     -0.006119
     16.30059      4.58482     -0.14757        -0.000623      0.001232      0.002963
      4.36773     17.71228      0.04359        -0.000189     -0.001513      0.005818
     16.72894     12.55043      2.23304         0.001579      0.006092      0.000231
     16.73340      5.50670      2.14726         0.000284     -0.003588      0.003766
      7.99002     12.73882     -1.38226        -0.001444      0.004289     -0.001432
      3.93684     16.78908     -2.25093        -0.001806      0.001198      0.001279
      3.93566      1.26497      6.63100        -0.000737     -0.000829      0.002445
      8.42078      4.39515      3.47252         0.000463      0.001152      0.003286
     20.34909     17.52575      3.65883        -0.000605     -0.003964      0.003143
      4.36932      0.34188      4.33685         0.002477      0.006224     -0.000755
      7.98832      5.31701      5.76731         0.001177     -0.001653      0.004181
      8.42229     13.66308      0.91180        -0.000145     -0.001163     -0.001629
     19.30833      1.57002      0.52577        -0.001195      0.001909     -0.004365
     19.75556      2.49495      2.75893         0.001712     -0.004046     -0.000358
     19.74829     15.56439      1.61649         0.001847      0.003320      0.000355
     17.32730     14.51438      4.27394        -0.001479     -0.002614      0.001328
     17.33234      3.54593      0.10374        -0.002129      0.002880      0.001514
      5.41324     16.67575      0.23531        -0.002055     -0.000472      0.002563
     17.77295     13.58838      2.04080         0.000911      0.003377     -0.003630
     17.77912      4.47009      2.33741        -0.002007     -0.001322      0.002495
      6.94471     13.77553     -1.57377        -0.001844      0.005233     -0.001122
      4.96843     15.75037     -1.99812        -0.003014      0.002421     -0.000656
      4.96693      2.30430      6.37954        -0.001276     -0.003352     -0.000353
      7.38957      3.35579      3.72413         0.002186      0.001507      0.000596
     19.30311     16.48958      3.84998         0.002069     -0.002460      0.000532
      5.41389      1.37965      4.14609         0.000746      0.002743     -0.001944
      6.94310      4.27991      5.95772         0.000879     -0.002739      0.001611
      7.39033     14.70158      0.65933         0.001987     -0.003539      0.000137
     18.59105      1.23468      6.57164        -0.002621      0.005840     -0.002809
     19.48376      3.44858      3.73506        -0.002230     -0.002569     -0.000069
     19.47521     14.61063      0.64085        -0.002265      0.000262     -0.002720
     17.59903     15.84565     -1.98683         0.001144     -0.003918      0.000661
     17.60554      2.21576      6.36347         0.002512     -0.000010     -0.000664
      6.13052     16.63522      1.42592         0.002649     -0.005967      0.003597
     18.48996     13.62958      0.85002         0.001527      0.005839     -0.002736
     18.49763      4.42908      3.52726         0.001957     -0.003740      0.005882
      6.22778     13.43898      4.47183        -0.000738      0.004104     -0.004407
      5.24217     14.41952      4.26244        -0.000177      0.002601     -0.002257
      5.23837      3.63480      0.11958         0.002022     -0.001927      0.000776
      7.11706      2.40258      2.74773         0.000059      0.001960     -0.002215
     18.58463     16.82633     -2.19581        -0.000119     -0.005345      0.002863
      6.13164      1.42149      2.95579         0.000826      0.004422     -0.004208
      6.22422      4.61558     -0.08833        -0.001148     -0.005339      0.002905
      7.11687     15.65515      1.63502        -0.002556     -0.001466      0.000018
     22.06884     23.97585     -2.05716        -0.003735      0.003967     -0.001364
     22.06431     18.49587      2.22363        -0.000447     -0.004107      0.004881
     15.01460     11.58052      3.66886         0.004103      0.004151     -0.002249
     15.01719      6.47741      0.71357         0.001558     -0.003061      0.003237
      2.65345     18.68300     -1.39236         0.002521     -0.003417      0.002963
      9.70532     11.76929      0.05257        -0.005039      0.004315     -0.001806
      2.65520     23.78650      1.56283         0.003034      0.003765     -0.002003
      9.70334      6.28880      4.33294        -0.002727     -0.004475      0.002896
     19.04205      2.52160      1.53779        -0.002893      0.003382      0.000144
     19.03585     15.53799      2.83824        -0.002259     -0.001757      0.003101
     18.03977     14.54048      3.05224         0.002031      0.001791     -0.001611
     18.04570      3.51911      1.32501         0.001884     -0.005318     -0.001254
      5.68094     15.72442     -0.77641         0.004090     -0.005087      0.002120
      6.67759     14.72750     -0.56226        -0.003247      0.000820     -0.004846
      5.68017      2.33116      5.15828         0.002227      0.001466     -0.001839
      6.67641      3.32874      4.94543        -0.001046     -0.002755      0.001168
      0.30955     21.42454     -3.53247        -0.001915     -0.000295      0.002556
     24.41176     21.23534      0.08389        -0.000238      0.001013      0.003179
     12.04914      9.02906      2.19286         0.000644      0.000399      0.000535
     12.67117      9.21790     -1.42517        -0.001940      0.001316      0.001496
      7.68073      2.43879      1.81600         0.001369      0.005809     -0.002378
     18.26110     12.88989      0.08335         0.000661      0.007426     -0.004426
     18.26899      5.16819      4.29458         0.001200     -0.007386      0.002348
     18.81956      0.49548      5.80443        -0.000993      0.006385     -0.004768
     18.81338     17.56604     -1.42924        -0.000003     -0.005743      0.004516
     17.03501     15.81039     -1.05531        -0.000850     -0.005544      0.003231
      4.67863     14.45454      3.33060        -0.001298      0.006157     -0.002726
      4.67386      3.59898      1.05081        -0.000043     -0.005523      0.003110
     20.03825     14.64622     -0.29130         0.001954      0.005735     -0.001699
      6.45262      5.35456      0.67908         0.000086     -0.005337      0.003478
      6.45695     12.69915      3.70538        -0.001340      0.007616     -0.004605
      5.90079     17.37430      2.19289         0.000944     -0.006333      0.002751
      7.68031     15.62018      2.56689         0.001471     -0.006248      0.003354
     17.04173      2.25166      5.43185        -0.001921      0.005933     -0.003131
     20.04832      3.41310      4.66622         0.001369     -0.006264      0.003827
      5.90316      0.68222      2.18859         0.000740      0.007461     -0.004394
     15.22342     11.20800     -1.44774        -0.005925      0.005457      0.003501
      9.49703      7.03612      2.21255         0.006997     -0.005093     -0.004365
     10.79904     11.67064     -1.91734        -0.006693     -0.002192     -0.006259
      1.56013     18.78362      0.57736         0.005762      0.002262      0.006849
      2.86268     23.41312     -3.55408        -0.006528      0.005344      0.003735
     10.79488      6.76637     -0.93268        -0.005860      0.002332      0.006501
     23.16127     23.87516     -4.02762        -0.006544     -0.001995     -0.006001
     21.85735     19.24459      0.10373         0.007436     -0.005552     -0.003700
      1.56216     23.68784     -0.40741         0.006604     -0.002254     -0.005201
     13.92052     11.48080      1.69931         0.006619     -0.002099     -0.005985
     15.22362      6.84870      5.82952        -0.007506     -0.004986     -0.002924
     21.86076     23.22680      0.06254         0.005821      0.005180      0.004025
     13.92515      6.57669      2.68410         0.005875      0.002700      0.006276
      9.49629     11.01865      2.17161         0.006396      0.005203      0.003603
      2.86169     19.05337      3.72333        -0.006827     -0.005301     -0.003361
     23.15705     18.97154     -3.04254        -0.005710      0.001741      0.007914
     23.79498     22.60681     -2.45664        -0.003378      0.002392     -0.003407
     23.37395     22.38831     -1.17048        -0.000806      0.004786      0.001419
     23.79340     19.86196      2.62264        -0.004805     -0.001528      0.004320
     13.28762     10.21242      3.27054         0.003196      0.001983     -0.003600
     13.70940      8.06286     -0.17303        -0.001706     -0.002108      0.000804
      1.34737     20.26910     -2.28032        -0.000672     -0.002322      0.000597
     13.70957      9.99340      4.55628         0.000099      0.004925      0.000912
     13.28913      7.84445      1.11356         0.002992      0.000189      0.003320
     11.01073     10.18181      0.93885        -0.000917      0.005178      0.000952
      0.92612     20.05135     -0.99397         0.003718     -0.000653      0.003590
      1.34890     22.19966      2.44904         0.000097      0.004755      0.001345
     11.01067      7.87427      3.44555         0.000201     -0.002696     -0.000448
     23.37248     20.08073      1.33633         0.000312     -0.002948     -0.000010
      0.92774     22.41926      1.16310         0.003551      0.002592     -0.002782
     11.43104      7.65654      4.73221        -0.004052     -0.000862      0.004148
     11.43242     10.40147     -0.34693        -0.004060      0.002750     -0.004206
     21.04983      0.54067      1.95750         0.001783     -0.001007     -0.001750
     21.04522     17.51724      2.41724         0.001955     -0.001120      0.000174
     16.03250     12.55996      3.47444        -0.002040     -0.000657     -0.000859
     16.03610      5.49845      0.90625        -0.001962     -0.000472      0.001313
      3.67174     17.70365     -1.19814        -0.001857     -0.000376      0.002045
      8.68674     12.74836     -0.14104         0.001783     -0.001103     -0.001081
      3.67212      0.35061      5.57772        -0.002151     -0.001028     -0.001032
      8.68499      5.30927      4.52604         0.002403     -0.000575     -0.000282
     20.61217     23.74035      2.87747        -0.000812      0.000485     -0.008005
     21.38666      1.38059      4.08068        -0.000829     -0.002718     -0.003584
     21.37795     16.67812      0.29293         0.000390      0.001197     -0.000693
     15.69751     13.77699     -1.63826        -0.003064     -0.002469      0.002017
     15.70202      4.28295      6.01804        -0.001668      0.001035     -0.000732
      4.10827     18.54137      0.91123         0.002239     -0.007821      0.002946
     16.47103     11.71951      1.36673         0.000761      0.001684     -0.009001
     16.47464      6.33534      3.01549         0.001243     -0.005434      0.005000
      8.24957     11.53201      4.98681        -0.000637      0.001057     -0.008494
      3.33900     16.48643      3.91421        -0.001176      0.001565      0.000301
      3.33539      1.56666      0.46514         0.002299     -0.002855     -0.003635
      9.01965      4.47027      2.40194         0.001557      0.001499     -0.003351
     20.60858     18.73110     -2.70916        -0.000567     -0.004060      0.004163
      4.11286     23.92719     -0.73836         0.000854      0.001017     -0.008978
      8.24672      6.52253     -0.60048        -0.000578     -0.006387      0.002923
      9.02185     13.58892      1.98216        -0.000366     -0.002995     -0.001198
 -----------------------------------------------------------------------------------
    total drift:                                0.015619      0.022663      0.026414


--------------------------------------------------------------------------------------------------------



  FREE ENERGIE OF THE ION-ELECTRON SYSTEM (eV)
  ---------------------------------------------------
  free  energy   TOTEN  =     -1161.55977663 eV

  energy  without entropy=    -1161.55977663  energy(sigma->0) =    -1161.55977663
 


--------------------------------------------------------------------------------------------------------


    POTLOK:  cpu time    0.2132: real time    0.2140


--------------------------------------------------------------------------------------------------------


 Quasi-Newton relaxation of ions (Broydens 2nd method)
  g(Force)  = 0.256E-03   g(Stress)= 0.127E-04

 Reset! Starting new Quasi-Newton update for ions 


--------------------------------------------------------------------------------------------------------


  
 reached required accuracy - stopping structural energy minimisation
 writing wavefunctions
     LOOP+:  cpu time  331.9927: real time  337.4160
    4ORBIT:  cpu time    0.0000: real time    0.0000

 total amount of memory used by VASP MPI-rank0   102249. kBytes
=======================================================================

   base      :      30000. kBytes
   nonlr-proj:       6446. kBytes
   fftplans  :      13266. kBytes
   grid      :      22747. kBytes
   one-center:        606. kBytes
   wavefun   :      29184. kBytes
 
  
  
 General timing and accounting informations for this job:
 ========================================================
  
                  Total CPU time used (sec):      427.526
                            User time (sec):      373.901
                          System time (sec):       53.624
                         Elapsed time (sec):      434.694
  
                   Maximum memory used (kb):     1001888.
                   Average memory used (kb):           0.
  
                          Minor page faults:       213579
                          Major page faults:            6
                 Voluntary context switches:         9688
