       N       E                     dE             d eps       ncg     rms          rms(c)
RMM:   1     0.849138740913E+04    0.84914E+04   -0.21432E+05  1200   0.122E+03
RMM:   2     0.324819649559E+04   -0.52432E+04   -0.67166E+04  1200   0.274E+02
RMM:   3     0.119414336688E+04   -0.20541E+04   -0.29627E+04  1200   0.180E+02
RMM:   4    -0.277024844271E+03   -0.14712E+04   -0.14850E+04  1200   0.154E+02
RMM:   5    -0.913363844759E+03   -0.63634E+03   -0.56649E+03  1200   0.101E+02
RMM:   6    -0.113771575650E+04   -0.22435E+03   -0.19595E+03  1200   0.635E+01
RMM:   7    -0.120252030633E+04   -0.64805E+02   -0.60591E+02  1200   0.358E+01
RMM:   8    -0.122664039659E+04   -0.24120E+02   -0.20742E+02  1200   0.216E+01
RMM:   9    -0.123954495963E+04   -0.12905E+02   -0.12362E+02  2779   0.125E+01
RMM:  10    -0.124056270901E+04   -0.10177E+01   -0.96842E+00  3246   0.388E+00
RMM:  11    -0.124061518500E+04   -0.52476E-01   -0.41401E-01  2832   0.760E-01
RMM:  12    -0.124061868834E+04   -0.35033E-02   -0.33079E-02  3235   0.224E-01    0.575E+01
RMM:  13    -0.116882037185E+04    0.71798E+02   -0.16379E+02  2400   0.164E+01    0.319E+01
RMM:  14    -0.115376657285E+04    0.15054E+02   -0.44231E+01  2400   0.848E+00    0.148E+01
RMM:  15    -0.115207097668E+04    0.16956E+01   -0.10560E+01  2400   0.449E+00    0.495E+00
RMM:  16    -0.115182343486E+04    0.24754E+00   -0.85175E-01  2444   0.144E+00    0.145E+00
RMM:  17    -0.115179143669E+04    0.31998E-01   -0.16893E-01  2427   0.657E-01    0.520E-01
RMM:  18    -0.115178415840E+04    0.72783E-02   -0.53451E-02  2403   0.297E-01    0.284E-01
RMM:  19    -0.115178596657E+04   -0.18082E-02   -0.12890E-02  2420   0.159E-01    0.155E-01
RMM:  20    -0.115179506261E+04   -0.90960E-02   -0.12071E-02  2400   0.129E-01    0.110E-01
RMM:  21    -0.115180004764E+04   -0.49850E-02   -0.65778E-03  2400   0.867E-02    0.806E-02
RMM:  22    -0.115180450384E+04   -0.44562E-02   -0.19913E-03  2400   0.522E-02    0.359E-02
RMM:  23    -0.115180763633E+04   -0.31325E-02   -0.39810E-04  2440   0.247E-02    0.273E-02
RMM:  24    -0.115181129865E+04   -0.36623E-02   -0.42640E-04  2416   0.227E-02    0.184E-02
RMM:  25    -0.115181328812E+04   -0.19895E-02   -0.25639E-04  2400   0.166E-02    0.123E-02
RMM:  26    -0.115181439009E+04   -0.11020E-02   -0.94244E-05  2328   0.951E-03    0.547E-03
RMM:  27    -0.115181477396E+04   -0.38387E-03   -0.23637E-05  2047   0.429E-03    0.365E-03
RMM:  28    -0.115181499964E+04   -0.22568E-03   -0.13102E-05  2001   0.346E-03    0.143E-03
RMM:  29    -0.115181506022E+04   -0.60587E-04   -0.33958E-06  1700   0.190E-03    0.820E-04
RMM:  30    -0.115181508282E+04   -0.22599E-04   -0.10964E-06  1514   0.117E-03    0.693E-04
RMM:  31    -0.115181508710E+04   -0.42801E-05   -0.33157E-07  1223   0.752E-04    0.371E-04
RMM:  32    -0.115181508889E+04   -0.17930E-05   -0.17936E-07  1178   0.590E-04    0.337E-04
RMM:  33    -0.115181508932E+04   -0.42905E-06   -0.70443E-08   961   0.410E-04
   1 F= -.11617631E+04 E0= -.11617631E+04  d E =-.116176E+04
