 vasp.6.0.8 29Jun18 (build Mar 14 2019 11:44:20) complex                        
  
 executed on             LinuxIFC date 2021.01.18  17:31:58
 running   64 mpi-ranks, with    1 threads/rank
 distrk:  each k-point on   64 cores,    1 groups
 distr:  one band on NCORES_PER_BAND=   4 cores,   16 groups


--------------------------------------------------------------------------------------------------------


 INCAR:
 POTCAR:    PAW_PBE C 08Apr2002                   
 POTCAR:    PAW_PBE Zn 06Sep2000                  
 POTCAR:    PAW_PBE H 15Jun2001                   
 POTCAR:    PAW_PBE N 08Apr2002                   
 POTCAR:    PAW_PBE O 08Apr2002                   
 POTCAR:    PAW_PBE C 08Apr2002                   
   VRHFIN =C: s2p2                                                              
   LEXCH  = PE                                                                  
   EATOM  =   147.1560 eV,   10.8157 Ry                                         
                                                                                
   TITEL  = PAW_PBE C 08Apr2002                                                 
   LULTRA =        F    use ultrasoft PP ?                                      
   IUNSCR =        1    unscreen: 0-lin 1-nonlin 2-no                           
   RPACOR =    1.200    partial core radius                                     
   POMASS =   12.011; ZVAL   =    4.000    mass and valenz                      
   RCORE  =    1.500    outmost cutoff radius                                   
   RWIGS  =    1.630; RWIGS  =    0.863    wigner-seitz radius (au A)           
   ENMAX  =  400.000; ENMIN  =  300.000 eV                                      
   ICORE  =        2    local potential                                         
   LCOR   =        T    correct aug charges                                     
   LPAW   =        T    paw PP                                                  
   EAUG   =  644.873                                                            
   DEXC   =    0.000                                                            
   RMAX   =    1.529    core radius for proj-oper                               
   RAUG   =    1.300    factor for augmentation sphere                          
   RDEP   =    1.501    radius for radial grids                                 
   RDEPT  =    1.300    core radius for aug-charge                              
                                                                                
   Atomic configuration                                                         
    4 entries                                                                   
     n  l   j            E        occ.                                          
     1  0  0.50      -273.3789   2.0000                                         
     2  0  0.50       -13.7508   2.0000                                         
     2  1  0.50        -5.2854   2.0000                                         
     3  2  1.50        -5.4423   0.0000                                         
   Description                                                                  
     l       E           TYP  RCUT    TYP  RCUT                                 
     0    -13.7508458     23  1.200                                             
     0     -8.2022199     23  1.200                                             
     1     -5.2854383     23  1.500                                             
     1     34.0145650     23  1.500                                             
     2     -5.4423304      7  1.500                                             
  local pseudopotential read in
  partial core-charges read in
  partial kinetic energy density read in
  atomic valenz-charges read in
  non local Contribution for L=           0  read in
    real space projection operators read in
  non local Contribution for L=           0  read in
    real space projection operators read in
  non local Contribution for L=           1  read in
    real space projection operators read in
  non local Contribution for L=           1  read in
    real space projection operators read in
    PAW grid and wavefunctions read in
 
   number of l-projection  operators is LMAX  =           4
   number of lm-projection operators is LMMAX =           8
 
 POTCAR:    PAW_PBE Zn 06Sep2000                  
   VRHFIN =Zn: d10 p2                                                           
   LEXCH  = PE                                                                  
   EATOM  =  1748.8345 eV,  128.5357 Ry                                         
                                                                                
   TITEL  = PAW_PBE Zn 06Sep2000                                                
   LULTRA =        F    use ultrasoft PP ?                                      
   IUNSCR =        1    unscreen: 0-lin 1-nonlin 2-no                           
   RPACOR =    2.000    partial core radius                                     
   POMASS =   65.390; ZVAL   =   12.000    mass and valenz                      
   RCORE  =    2.300    outmost cutoff radius                                   
   RWIGS  =    2.400; RWIGS  =    1.270    wigner-seitz radius (au A)           
   ENMAX  =  276.723; ENMIN  =  207.542 eV                                      
   RCLOC  =    1.828    cutoff for local pot                                    
   LCOR   =        T    correct aug charges                                     
   LPAW   =        T    paw PP                                                  
   EAUG   =  575.892                                                            
   DEXC   =    0.000                                                            
   RMAX   =    2.347    core radius for proj-oper                               
   RAUG   =    1.300    factor for augmentation sphere                          
   RDEP   =    2.324    radius for radial grids                                 
   RDEPT  =    1.788    core radius for aug-charge                              
                                                                                
   Atomic configuration                                                         
    9 entries                                                                   
     n  l   j            E        occ.                                          
     1  0  0.50     -9524.6913   2.0000                                         
     2  0  0.50     -1158.1882   2.0000                                         
     2  1  1.50     -1003.8506   6.0000                                         
     3  0  0.50      -129.2194   2.0000                                         
     3  1  1.50       -83.3890   6.0000                                         
     3  2  2.50       -10.1410  10.0000                                         
     4  0  0.50        -5.9785   2.0000                                         
     4  1  0.50        -4.0817   0.0000                                         
     4  3  2.50        -1.3606   0.0000                                         
   Description                                                                  
     l       E           TYP  RCUT    TYP  RCUT                                 
     2    -10.1410010     23  2.300                                             
     2    -11.5015836     23  2.300                                             
     0     -5.9785163     23  2.300                                             
     0      1.1858015     23  2.300                                             
     1     -2.7211652     23  2.300                                             
     1     13.2444212     23  2.300                                             
  local pseudopotential read in
  partial core-charges read in
  partial kinetic energy density read in
  atomic valenz-charges read in
  non local Contribution for L=           2  read in
    real space projection operators read in
  non local Contribution for L=           2  read in
    real space projection operators read in
  non local Contribution for L=           0  read in
    real space projection operators read in
  non local Contribution for L=           0  read in
    real space projection operators read in
  non local Contribution for L=           1  read in
    real space projection operators read in
  non local Contribution for L=           1  read in
    real space projection operators read in
    PAW grid and wavefunctions read in
 
   number of l-projection  operators is LMAX  =           6
   number of lm-projection operators is LMMAX =          18
 
 POTCAR:    PAW_PBE H 15Jun2001                   
   VRHFIN =H: ultrasoft test                                                    
   LEXCH  = PE                                                                  
   EATOM  =    12.4884 eV,    0.9179 Ry                                         
                                                                                
   TITEL  = PAW_PBE H 15Jun2001                                                 
   LULTRA =        F    use ultrasoft PP ?                                      
   IUNSCR =        0    unscreen: 0-lin 1-nonlin 2-no                           
   RPACOR =    0.000    partial core radius                                     
   POMASS =    1.000; ZVAL   =    1.000    mass and valenz                      
   RCORE  =    1.100    outmost cutoff radius                                   
   RWIGS  =    0.700; RWIGS  =    0.370    wigner-seitz radius (au A)           
   ENMAX  =  250.000; ENMIN  =  200.000 eV                                      
   RCLOC  =    0.701    cutoff for local pot                                    
   LCOR   =        T    correct aug charges                                     
   LPAW   =        T    paw PP                                                  
   EAUG   =  400.000                                                            
   RMAX   =    1.123    core radius for proj-oper                               
   RAUG   =    1.200    factor for augmentation sphere                          
   RDEP   =    1.112    radius for radial grids                                 
   RDEPT  =    0.926    core radius for aug-charge                              
                                                                                
   Atomic configuration                                                         
    2 entries                                                                   
     n  l   j            E        occ.                                          
     1  0  0.50        -6.4927   1.0000                                         
     2  1  0.50        -3.4015   0.0000                                         
   Description                                                                  
     l       E           TYP  RCUT    TYP  RCUT                                 
     0     -6.4927494     23  1.100                                             
     0      6.8029130     23  1.100                                             
     1     -4.0817478     23  1.100                                             
  local pseudopotential read in
  atomic valenz-charges read in
  non local Contribution for L=           0  read in
    real space projection operators read in
  non local Contribution for L=           0  read in
    real space projection operators read in
  non local Contribution for L=           1  read in
    real space projection operators read in
    PAW grid and wavefunctions read in
 
   number of l-projection  operators is LMAX  =           3
   number of lm-projection operators is LMMAX =           5
 
 POTCAR:    PAW_PBE N 08Apr2002                   
   VRHFIN =N: s2p3                                                              
   LEXCH  = PE                                                                  
   EATOM  =   264.5486 eV,   19.4438 Ry                                         
                                                                                
   TITEL  = PAW_PBE N 08Apr2002                                                 
   LULTRA =        F    use ultrasoft PP ?                                      
   IUNSCR =        1    unscreen: 0-lin 1-nonlin 2-no                           
   RPACOR =    1.200    partial core radius                                     
   POMASS =   14.001; ZVAL   =    5.000    mass and valenz                      
   RCORE  =    1.500    outmost cutoff radius                                   
   RWIGS  =    1.400; RWIGS  =    0.741    wigner-seitz radius (au A)           
   ENMAX  =  400.000; ENMIN  =  300.000 eV                                      
   ICORE  =        2    local potential                                         
   LCOR   =        T    correct aug charges                                     
   LPAW   =        T    paw PP                                                  
   EAUG   =  627.112                                                            
   DEXC   =    0.000                                                            
   RMAX   =    1.529    core radius for proj-oper                               
   RAUG   =    1.300    factor for augmentation sphere                          
   RDEP   =    1.514    radius for radial grids                                 
   RDEPT  =    1.338    core radius for aug-charge                              
                                                                                
   Atomic configuration                                                         
    4 entries                                                                   
     n  l   j            E        occ.                                          
     1  0  0.50      -384.7179   2.0000                                         
     2  0  0.50       -18.5828   2.0000                                         
     2  1  0.50        -7.0898   3.0000                                         
     3  2  1.50        -6.8029   0.0000                                         
   Description                                                                  
     l       E           TYP  RCUT    TYP  RCUT                                 
     0    -18.5828119     23  1.200                                             
     0    -13.5018863     23  1.200                                             
     1     -7.0897853     23  1.500                                             
     1      9.5240782     23  1.500                                             
     2     -6.8029130      7  1.500                                             
  local pseudopotential read in
  partial core-charges read in
  partial kinetic energy density read in
  atomic valenz-charges read in
  non local Contribution for L=           0  read in
    real space projection operators read in
  non local Contribution for L=           0  read in
    real space projection operators read in
  non local Contribution for L=           1  read in
    real space projection operators read in
  non local Contribution for L=           1  read in
    real space projection operators read in
    PAW grid and wavefunctions read in
 
   number of l-projection  operators is LMAX  =           4
   number of lm-projection operators is LMMAX =           8
 
 POTCAR:    PAW_PBE O 08Apr2002                   
   VRHFIN =O: s2p4                                                              
   LEXCH  = PE                                                                  
   EATOM  =   432.3788 eV,   31.7789 Ry                                         
                                                                                
   TITEL  = PAW_PBE O 08Apr2002                                                 
   LULTRA =        F    use ultrasoft PP ?                                      
   IUNSCR =        1    unscreen: 0-lin 1-nonlin 2-no                           
   RPACOR =    1.200    partial core radius                                     
   POMASS =   16.000; ZVAL   =    6.000    mass and valenz                      
   RCORE  =    1.520    outmost cutoff radius                                   
   RWIGS  =    1.550; RWIGS  =    0.820    wigner-seitz radius (au A)           
   ENMAX  =  400.000; ENMIN  =  300.000 eV                                      
   ICORE  =        2    local potential                                         
   LCOR   =        T    correct aug charges                                     
   LPAW   =        T    paw PP                                                  
   EAUG   =  605.392                                                            
   DEXC   =    0.000                                                            
   RMAX   =    1.553    core radius for proj-oper                               
   RAUG   =    1.300    factor for augmentation sphere                          
   RDEP   =    1.550    radius for radial grids                                 
   RDEPT  =    1.329    core radius for aug-charge                              
                                                                                
   Atomic configuration                                                         
    4 entries                                                                   
     n  l   j            E        occ.                                          
     1  0  0.50      -514.6923   2.0000                                         
     2  0  0.50       -23.9615   2.0000                                         
     2  1  0.50        -9.0305   4.0000                                         
     3  2  1.50        -9.5241   0.0000                                         
   Description                                                                  
     l       E           TYP  RCUT    TYP  RCUT                                 
     0    -23.9615318     23  1.200                                             
     0     -9.5240782     23  1.200                                             
     1     -9.0304911     23  1.520                                             
     1      8.1634956     23  1.520                                             
     2     -9.5240782      7  1.500                                             
  local pseudopotential read in
  partial core-charges read in
  partial kinetic energy density read in
  kinetic energy density of atom read in
  atomic valenz-charges read in
  non local Contribution for L=           0  read in
    real space projection operators read in
  non local Contribution for L=           0  read in
    real space projection operators read in
  non local Contribution for L=           1  read in
    real space projection operators read in
  non local Contribution for L=           1  read in
    real space projection operators read in
    PAW grid and wavefunctions read in
 
   number of l-projection  operators is LMAX  =           4
   number of lm-projection operators is LMMAX =           8
 
 Optimization of the real space projectors (new method)

 maximal supplied QI-value         = 25.13
 optimisation between [QCUT,QGAM] = [ 12.32, 24.88] = [ 42.47,173.37] Ry 
 Optimized for a Real-space Cutoff    1.06 Angstroem

   l    n(q)    QCUT    max X(q) W(low)/X(q) W(high)/X(q)  e(spline) 
   0      8    12.315   115.676    0.34E-03    0.18E-03    0.23E-06
   0      8    12.315    87.132    0.34E-03    0.18E-03    0.22E-06
   1      7    12.315     4.429    0.45E-03    0.12E-03    0.18E-06
   1      7    12.315     2.733    0.35E-03    0.97E-04    0.15E-06
 Optimization of the real space projectors (new method)

 maximal supplied QI-value         = 16.25
 optimisation between [QCUT,QGAM] = [ 12.51, 25.03] = [ 43.85,175.40] Ry 
 Optimized for a Real-space Cutoff    1.31 Angstroem

   l    n(q)    QCUT    max X(q) W(low)/X(q) W(high)/X(q)  e(spline) 
   2      9    12.514    46.356    0.36E-03    0.54E-03    0.48E-06
   2      9    12.514    41.843    0.37E-03    0.56E-03    0.49E-06
   0     10    12.514    48.958    0.13E-03    0.28E-03    0.23E-06
   0     10    12.514    32.776    0.12E-03    0.26E-03    0.22E-06
   1      9    12.514    17.787    0.44E-03    0.44E-04    0.36E-06
   1      9    12.514    14.435    0.39E-03    0.39E-04    0.32E-06
 Optimization of the real space projectors (new method)

 maximal supplied QI-value         = 34.20
 optimisation between [QCUT,QGAM] = [ 12.31, 24.97] = [ 42.46,174.58] Ry 
 Optimized for a Real-space Cutoff    1.00 Angstroem

   l    n(q)    QCUT    max X(q) W(low)/X(q) W(high)/X(q)  e(spline) 
   0      7    12.313    19.460    0.14E-03    0.42E-03    0.16E-06
   0      7    12.313    12.209    0.12E-03    0.40E-03    0.16E-06
   1      7    12.313     4.655    0.33E-03    0.59E-03    0.89E-07
 Optimization of the real space projectors (new method)

 maximal supplied QI-value         = 25.13
 optimisation between [QCUT,QGAM] = [ 12.32, 24.88] = [ 42.47,173.37] Ry 
 Optimized for a Real-space Cutoff    1.20 Angstroem

   l    n(q)    QCUT    max X(q) W(low)/X(q) W(high)/X(q)  e(spline) 
   0      9    12.315    79.467    0.14E-03    0.22E-04    0.37E-06
   0      9    12.315    66.151    0.14E-03    0.23E-04    0.36E-06
   1      8    12.315    22.077    0.30E-03    0.54E-03    0.45E-06
   1      8    12.315    15.894    0.30E-03    0.55E-03    0.45E-06
 Optimization of the real space projectors (new method)

 maximal supplied QI-value         = 24.76
 optimisation between [QCUT,QGAM] = [ 12.38, 25.00] = [ 42.90,175.06] Ry 
 Optimized for a Real-space Cutoff    1.13 Angstroem

   l    n(q)    QCUT    max X(q) W(low)/X(q) W(high)/X(q)  e(spline) 
   0      8    12.378    20.381    0.16E-03    0.54E-05    0.27E-06
   0      8    12.378    15.268    0.17E-03    0.61E-05    0.29E-06
   1      8    12.378     5.964    0.38E-03    0.23E-03    0.28E-06
   1      8    12.378     5.382    0.33E-03    0.20E-03    0.25E-06
  PAW_PBE C 08Apr2002                   :
 energy of atom  1       EATOM= -147.1560
 kinetic energy error for atom=    0.0057 (will be added to EATOM!!)
  PAW_PBE Zn 06Sep2000                  :
 energy of atom  2       EATOM=-1748.8345
 kinetic energy error for atom=    0.0020 (will be added to EATOM!!)
  PAW_PBE H 15Jun2001                   :
 energy of atom  3       EATOM=  -12.4884
 kinetic energy error for atom=    0.0004 (will be added to EATOM!!)
  PAW_PBE N 08Apr2002                   :
 energy of atom  4       EATOM= -264.5486
 kinetic energy error for atom=    0.0103 (will be added to EATOM!!)
  PAW_PBE O 08Apr2002                   :
 energy of atom  5       EATOM= -432.3788
 kinetic energy error for atom=    0.0168 (will be added to EATOM!!)
 
 
 POSCAR: Zn_H
  positions in direct lattice
  velocities in cartesian coordinates
 exchange correlation table for  LEXCH =        8
   RHO(1)=    0.500       N(1)  =     2000
   RHO(2)=  100.500       N(2)  =     4000
 


--------------------------------------------------------------------------------------------------------


 ion  position               nearest neighbor table
   1  0.933  0.968  0.151- 107 1.08 117 1.34  65 1.40
   2  0.899  0.957  0.431- 112 1.09 118 1.35  65 1.40
   3  0.933  0.788  0.893- 116 1.08 119 1.34  66 1.40
   4  0.567  0.468  0.651- 110 1.08 120 1.34  67 1.40
   5  0.600  0.299  0.114- 111 1.09 121 1.35  68 1.40
   6  0.100  0.799  0.113- 115 1.09 122 1.35  69 1.40
   7  0.600  0.457  0.932- 101 1.09 123 1.35  67 1.40
   8  0.567  0.288  0.394- 113 1.08 124 1.34  68 1.40
   9  0.399  0.457  0.432- 114 1.09 125 1.35  70 1.40
  10  0.067  0.787  0.394- 104 1.08 126 1.34  69 1.40
  11  0.100  0.956  0.931- 105 1.09 127 1.35  71 1.40
  12  0.399  0.299  0.614- 102 1.09 128 1.35  72 1.40
  13  0.899  0.799  0.613- 108 1.09 129 1.35  66 1.40
  14  0.067  0.968  0.651- 109 1.08 130 1.34  71 1.40
  15  0.433  0.288  0.894- 106 1.08 131 1.34  72 1.40
  16  0.433  0.468  0.152- 103 1.08 132 1.34  70 1.40
  17  0.822  0.022  0.106- 141 1.23 133 1.42  33 1.48
  18  0.841  0.068  0.463- 142 1.23 133 1.42  34 1.48
  19  0.840  0.688  0.582- 143 1.23 134 1.42  35 1.48
  20  0.659  0.568  0.963- 144 1.23 135 1.42  36 1.48
  21  0.660  0.188  0.082- 145 1.23 136 1.42  37 1.48
  22  0.178  0.734  0.438- 146 1.23 137 1.42  38 1.48
  23  0.677  0.522  0.607- 147 1.23 135 1.42  39 1.48
  24  0.678  0.234  0.438- 148 1.23 136 1.42  40 1.48
  25  0.322  0.522  0.107- 149 1.23 138 1.42  41 1.48
  26  0.159  0.687  0.082- 150 1.23 137 1.42  42 1.48
  27  0.159  0.068  0.963- 151 1.23 139 1.42  43 1.48
  28  0.340  0.188  0.582- 152 1.23 140 1.42  44 1.48
  29  0.822  0.734  0.938- 153 1.23 134 1.42  45 1.48
  30  0.178  0.022  0.607- 154 1.23 139 1.42  46 1.48
  31  0.322  0.234  0.939- 155 1.23 140 1.42  47 1.48
  32  0.340  0.568  0.464- 156 1.23 138 1.42  48 1.48
  33  0.780  0.064  0.105-  49 1.39  73 1.41  17 1.48
  34  0.799  0.111  0.452-  50 1.39  73 1.41  18 1.48
  35  0.799  0.645  0.593-  51 1.39  74 1.41  19 1.48
  36  0.700  0.611  0.952-  52 1.39  75 1.41  20 1.48
  37  0.701  0.145  0.093-  53 1.39  76 1.41  21 1.48
  38  0.220  0.692  0.440-  54 1.39  77 1.41  22 1.48
  39  0.720  0.564  0.605-  55 1.39  75 1.41  23 1.48
  40  0.720  0.192  0.440-  56 1.39  76 1.41  24 1.48
  41  0.280  0.564  0.106-  57 1.39  78 1.41  25 1.48
  42  0.201  0.645  0.093-  58 1.39  77 1.41  26 1.48
  43  0.201  0.111  0.952-  59 1.39  79 1.41  27 1.48
  44  0.299  0.145  0.593-  60 1.39  80 1.41  28 1.48
  45  0.780  0.692  0.939-  61 1.39  74 1.41  29 1.48
  46  0.220  0.064  0.605-  62 1.39  79 1.41  30 1.48
  47  0.280  0.192  0.940-  63 1.39  80 1.41  31 1.48
  48  0.299  0.611  0.452-  64 1.39  78 1.41  32 1.48
  49  0.751  0.062  0.934-  88 1.09  33 1.39  53 1.41
  50  0.789  0.154  0.617-  99 1.09  34 1.39  56 1.41
  51  0.789  0.602  0.428-  93 1.09  35 1.39  55 1.41
  52  0.711  0.654  0.117-  90 1.09  36 1.39  61 1.41
  53  0.711  0.102  0.928-  98 1.09  37 1.39  49 1.41
  54  0.249  0.694  0.611-  96 1.09  38 1.39  64 1.41
  55  0.749  0.562  0.434-  86 1.09  39 1.39  51 1.41
  56  0.750  0.194  0.611-  87 1.09  40 1.39  50 1.41
  57  0.250  0.561  0.934-  95 1.09  41 1.39  58 1.41
  58  0.211  0.602  0.928-  91 1.09  42 1.39  57 1.41
  59  0.211  0.154  0.117-  92 1.09  43 1.39  63 1.41
  60  0.289  0.102  0.428-  85 1.09  44 1.39  62 1.41
  61  0.750  0.695  0.111-  89 1.09  45 1.39  52 1.41
  62  0.249  0.061  0.434- 100 1.09  46 1.39  60 1.41
  63  0.250  0.194  0.111-  94 1.09  47 1.39  59 1.41
  64  0.289  0.654  0.617-  97 1.09  48 1.39  54 1.41
  65  0.892  0.986  0.291-   1 1.40   2 1.40 133 1.42
  66  0.891  0.769  0.753-   3 1.40  13 1.40 134 1.42
  67  0.608  0.486  0.792-   4 1.40   7 1.40 135 1.42
  68  0.608  0.269  0.254-   8 1.40   5 1.40 136 1.42
  69  0.108  0.769  0.254-  10 1.40   6 1.40 137 1.42
  70  0.392  0.486  0.292-  16 1.40   9 1.40 138 1.43
  71  0.108  0.986  0.791-  14 1.40  11 1.40 139 1.42
  72  0.392  0.269  0.754-  15 1.40  12 1.40 140 1.42
  73  0.770  0.108  0.275-  34 1.41  33 1.41  76 1.43
  74  0.770  0.648  0.769-  35 1.41  45 1.41  75 1.43
  75  0.730  0.608  0.775-  36 1.41  39 1.41  74 1.43
  76  0.730  0.148  0.269-  37 1.41  40 1.41  73 1.43
  77  0.230  0.648  0.270-  38 1.41  42 1.41  78 1.43
  78  0.270  0.607  0.276-  48 1.41  41 1.41  77 1.43
  79  0.230  0.107  0.776-  43 1.41  46 1.41  80 1.43
  80  0.270  0.148  0.770-  44 1.41  47 1.41  79 1.43
  81  0.016  0.878  0.022- 127 1.98 122 1.98 119 2.02 117 2.02
  82  0.984  0.878  0.522- 118 1.98 129 1.99 126 2.02 130 2.02
  83  0.484  0.378  0.523- 125 1.98 128 1.98 124 2.02 120 2.02
  84  0.516  0.378  0.023- 121 1.98 123 1.98 131 2.02 132 2.02
  85  0.312  0.100  0.294-  60 1.09
  86  0.741  0.528  0.304-  55 1.09
  87  0.741  0.228  0.740-  56 1.09
  88  0.759  0.028  0.804-  49 1.09
  89  0.759  0.728  0.240-  61 1.09
  90  0.687  0.656  0.251-  52 1.09
  91  0.188  0.600  0.794-  58 1.09
  92  0.187  0.156  0.251-  59 1.09
  93  0.812  0.600  0.294-  51 1.09
  94  0.259  0.228  0.241-  63 1.09
  95  0.259  0.528  0.805-  57 1.09
  96  0.241  0.728  0.741-  54 1.09
  97  0.312  0.656  0.751-  64 1.09
  98  0.688  0.100  0.794-  53 1.09
  99  0.812  0.156  0.751-  50 1.09
 100  0.241  0.028  0.304-  62 1.09
 101  0.622  0.459  0.068-   7 1.09
 102  0.377  0.297  0.478-  12 1.09
 103  0.442  0.480  0.017-  16 1.08
 104  0.058  0.776  0.528-  10 1.08
 105  0.122  0.958  0.067-  11 1.09
 106  0.442  0.276  0.029-  15 1.08
 107  0.942  0.980  0.016-   1 1.08
 108  0.877  0.797  0.477-  13 1.09
 109  0.058  0.980  0.516-  14 1.08
 110  0.558  0.480  0.517-   4 1.08
 111  0.623  0.297  0.978-   5 1.09
 112  0.877  0.959  0.567-   2 1.09
 113  0.558  0.276  0.529-   8 1.08
 114  0.377  0.458  0.568-   9 1.09
 115  0.122  0.797  0.977-   6 1.09
 116  0.941  0.776  0.028-   3 1.08
 117  0.964  0.930  0.204-   1 1.34 118 1.37  81 2.02
 118  0.943  0.923  0.376-   2 1.35 117 1.37  82 1.98
 119  0.963  0.826  0.840-   3 1.34 129 1.37  81 2.02
 120  0.536  0.430  0.705-   4 1.34 123 1.37  83 2.02
 121  0.557  0.333  0.169-   5 1.35 124 1.37  84 1.98
 122  0.057  0.833  0.168-   6 1.35 126 1.37  81 1.98
 123  0.557  0.423  0.877-   7 1.35 120 1.37  84 1.98
 124  0.536  0.326  0.341-   8 1.34 121 1.37  83 2.02
 125  0.443  0.423  0.377-   9 1.35 132 1.37  83 1.98
 126  0.036  0.826  0.340-  10 1.34 122 1.37  82 2.02
 127  0.057  0.922  0.876-  11 1.35 130 1.37  81 1.98
 128  0.443  0.333  0.669-  12 1.35 131 1.37  83 1.98
 129  0.943  0.833  0.668-  13 1.35 119 1.37  82 1.99
 130  0.036  0.930  0.704-  14 1.34 127 1.37  82 2.02
 131  0.463  0.326  0.841-  15 1.34 128 1.37  84 2.02
 132  0.464  0.430  0.205-  16 1.34 125 1.37  84 2.02
 133  0.851  0.026  0.287-  18 1.42  17 1.42  65 1.42
 134  0.850  0.729  0.757-  19 1.42  29 1.42  66 1.42
 135  0.649  0.526  0.788-  20 1.42  23 1.42  67 1.42
 136  0.650  0.229  0.258-  21 1.42  24 1.42  68 1.42
 137  0.149  0.729  0.258-  26 1.42  22 1.42  69 1.42
 138  0.350  0.526  0.288-  32 1.42  25 1.42  70 1.43
 139  0.149  0.026  0.787-  27 1.42  30 1.42  71 1.42
 140  0.350  0.229  0.758-  28 1.42  31 1.42  72 1.42
 141  0.833  0.984  0.960-  17 1.23
 142  0.865  0.069  0.616-  18 1.23
 143  0.865  0.687  0.428-  19 1.23
 144  0.635  0.569  0.117-  20 1.23
 145  0.635  0.187  0.929-  21 1.23
 146  0.167  0.772  0.585-  22 1.23
 147  0.667  0.484  0.460-  23 1.23
 148  0.668  0.272  0.585-  24 1.23
 149  0.333  0.484  0.961-  25 1.23
 150  0.135  0.687  0.929-  26 1.23
 151  0.135  0.069  0.116-  27 1.23
 152  0.365  0.187  0.429-  28 1.23
 153  0.832  0.772  0.084-  29 1.23
 154  0.167  0.984  0.460-  30 1.23
 155  0.332  0.272  0.085-  31 1.23
 156  0.365  0.569  0.617-  32 1.23
 

IMPORTANT INFORMATION: All symmetrisations will be switched off!
NOSYMM: (Re-)initialisation of all symmetry stuff for point group C_1.


----------------------------------------------------------------------------------------

                                     Primitive cell                                     

  volume of cell :    4158.0519

  direct lattice vectors                    reciprocal lattice vectors
    24.348178981 -0.001233464  0.000026618     0.041070833 -0.000004137 -0.000006527
     0.001750085 24.718004441 -4.654130379     0.000002077  0.041069617  0.003257104
     0.001058525 -0.556230852  7.013649830     0.000001222  0.027253051  0.144740472

  length of vectors
    24.348179012 25.152349317  7.035671810     0.041070834  0.041198570  0.147283852

  position of ions in fractional coordinates (direct lattice)
     0.933061981  0.968146001  0.150686181
     0.899489801  0.956579475  0.431467822
     0.932822355  0.787526888  0.893465832
     0.566733268  0.468194962  0.651436180
     0.600451318  0.299262919  0.113588938
     0.100364676  0.799074034  0.112903132
     0.600334735  0.456591976  0.932087638
     0.566907543  0.287559638  0.394203632
     0.399401999  0.456524676  0.432259698
     0.066768881  0.787478032  0.393599583
     0.100395934  0.956419521  0.931379660
     0.399400032  0.299183317  0.613705558
     0.899303093  0.799237642  0.612872567
     0.066836005  0.968105793  0.650793971
     0.432922585  0.287560458  0.894425265
     0.433017732  0.468212882  0.151714520
     0.822328592  0.021695601  0.106489341
     0.840548751  0.068235311  0.462801166
     0.840163608  0.687650415  0.581595705
     0.659303477  0.568242312  0.963147931
     0.659525411  0.187654879  0.082116666
     0.177612136  0.734118169  0.438141013
     0.677443236  0.521677794  0.606777785
     0.677849456  0.234273863  0.438221095
     0.322217784  0.521586528  0.107255906
     0.159433145  0.687487945  0.081971539
     0.159368845  0.068089544  0.962933315
     0.340383101  0.187587429  0.582378814
     0.821867047  0.734314101  0.937703782
     0.177605443  0.021586912  0.606594365
     0.322028916  0.234178219  0.938524461
     0.340383546  0.568201573  0.463545221
     0.780108992  0.064145068  0.104953071
     0.799343154  0.110830335  0.451875754
     0.798887998  0.645117919  0.592578974
     0.700473087  0.610845361  0.951987348
     0.700797180  0.145106691  0.092953559
     0.219824747  0.691682422  0.439963063
     0.719619243  0.564143097  0.604994671
     0.720052184  0.191809416  0.439790476
     0.279974801  0.564002607  0.105545003
     0.200668281  0.644935822  0.093101480
     0.200580183  0.110688435  0.952093075
     0.299117450  0.145027397  0.593183821
     0.779692650  0.691841823  0.939458834
     0.219818290  0.064045939  0.605113895
     0.279849754  0.191690561  0.940087079
     0.299142097  0.610756444  0.452470844
     0.750536595  0.061516083  0.933721448
     0.789197016  0.154223172  0.616874193
     0.788681780  0.601748580  0.427585616
     0.710635988  0.654248979  0.116914414
     0.710980050  0.101753696  0.927879092
     0.249377663  0.694379358  0.611287232
     0.749142633  0.561510564  0.433624004
     0.749658678  0.194471358  0.610978729
     0.250422280  0.561315652  0.934231881
     0.210876406  0.601545080  0.928167519
     0.210703015  0.154071221  0.117130121
     0.288941316  0.101690540  0.428069281
     0.750138062  0.694507541  0.110789652
     0.249389740  0.061444406  0.433871694
     0.250232287  0.194327849  0.111270490
     0.288930201  0.654158940  0.617383209
     0.891675254  0.986371110  0.290898837
     0.891396276  0.769436884  0.753371467
     0.608140739  0.486393071  0.791515826
     0.608335061  0.269454226  0.254070464
     0.108204202  0.769308114  0.253548313
     0.391590538  0.486364130  0.291822179
     0.108238563  0.986254309  0.790939490
     0.391520446  0.269402834  0.754288506
     0.770074512  0.107511688  0.275434681
     0.769659533  0.648442417  0.769120658
     0.729679233  0.607524443  0.775399514
     0.730064779  0.148423485  0.269380245
     0.229889790  0.648282297  0.269652219
     0.269906511  0.607391483  0.275920725
     0.229850982  0.107390819  0.775651309
     0.269850412  0.148314884  0.769632161
     0.015696659  0.877703567  0.021776766
     0.984086871  0.877808136  0.521966926
     0.484084476  0.377813033  0.522778949
     0.515718708  0.377815362  0.022732029
     0.312168505  0.099909177  0.294160887
     0.740532083  0.527773756  0.304340831
     0.741098293  0.228231718  0.740272768
     0.759126695  0.027786007  0.804373189
     0.758708748  0.728280788  0.240019096
     0.687441196  0.656071384  0.250916107
     0.187673929  0.599711391  0.794182088
     0.187458795  0.155875361  0.251020215
     0.811887986  0.599931353  0.293593834
     0.258772254  0.228084644  0.240587948
     0.259030294  0.527561054  0.804994245
     0.240765564  0.728141180  0.740515790
     0.312128154  0.656007141  0.751386288
     0.687748096  0.099949981  0.793984784
     0.812426380  0.156037736  0.750775753
     0.240802377  0.027728562  0.304488231
     0.622425479  0.458570210  0.067792635
     0.377326403  0.297233120  0.478001484
     0.441713634  0.480030063  0.017243694
     0.058078889  0.775725056  0.528202807
     0.122473042  0.958355727  0.067079877
     0.441578617  0.275791668  0.029019205
     0.941745709  0.979917689  0.016120828
     0.877224179  0.797332701  0.477212105
     0.058164218  0.979917793  0.516303870
     0.558042806  0.479964497  0.516880447
     0.622533678  0.297351764  0.977904571
     0.877414710  0.958571319  0.567233456
     0.558248854  0.275758021  0.528737268
     0.377307926  0.458459131  0.567944372
     0.122462988  0.797104505  0.977204778
     0.941473006  0.775726535  0.028002634
     0.963555980  0.929905589  0.204052535
     0.942716477  0.922518787  0.376166386
     0.963430718  0.825685293  0.840040747
     0.536240508  0.429962489  0.704868471
     0.557140849  0.333209302  0.168815174
     0.057070378  0.833053632  0.167951588
     0.557093963  0.422551035  0.876898999
     0.536316907  0.325738708  0.340829841
     0.442665546  0.422507694  0.376974035
     0.036220393  0.825647465  0.340017493
     0.057139711  0.922408066  0.876064498
     0.442683059  0.333163001  0.668878629
     0.942625178  0.833167061  0.668029766
     0.036309893  0.929870235  0.704082507
     0.463490606  0.325738558  0.840953873
     0.463528887  0.429968438  0.204998984
     0.850565442  0.026401698  0.287096662
     0.850200556  0.729493712  0.757212123
     0.649248027  0.526403961  0.787523857
     0.649515463  0.229488845  0.257797381
     0.149359656  0.729335399  0.257545913
     0.350437513  0.526349419  0.287919976
     0.149365641  0.026269590  0.787206911
     0.350365888  0.229415985  0.758063509
     0.832723616  0.984194297  0.959811552
     0.864937418  0.068704176  0.616173309
     0.864611060  0.687109168  0.428254334
     0.634979603  0.568711576  0.116672199
     0.635064732  0.187145061  0.928855688
     0.167238035  0.771683789  0.584629692
     0.667054300  0.484148411  0.460199527
     0.667553897  0.271853735  0.584744372
     0.332643765  0.484074589  0.960647849
     0.135056999  0.686970537  0.928532461
     0.134957932  0.068551886  0.116286659
     0.364856741  0.187079671  0.429109355
     0.832155119  0.771923356  0.084130269
     0.167220151  0.984101228  0.459869245
     0.332300744  0.271760445  0.085059717
     0.364780426  0.568717086  0.616937422

  ion indices of the primitive-cell ions
   primitive index   ion index
                 1           1
                 2           2
                 3           3
                 4           4
                 5           5
                 6           6
                 7           7
                 8           8
                 9           9
                10          10
                11          11
                12          12
                13          13
                14          14
                15          15
                16          16
                17          17
                18          18
                19          19
                20          20
                21          21
                22          22
                23          23
                24          24
                25          25
                26          26
                27          27
                28          28
                29          29
                30          30
                31          31
                32          32
                33          33
                34          34
                35          35
                36          36
                37          37
                38          38
                39          39
                40          40
                41          41
                42          42
                43          43
                44          44
                45          45
                46          46
                47          47
                48          48
                49          49
                50          50
                51          51
                52          52
                53          53
                54          54
                55          55
                56          56
                57          57
                58          58
                59          59
                60          60
                61          61
                62          62
                63          63
                64          64
                65          65
                66          66
                67          67
                68          68
                69          69
                70          70
                71          71
                72          72
                73          73
                74          74
                75          75
                76          76
                77          77
                78          78
                79          79
                80          80
                81          81
                82          82
                83          83
                84          84
                85          85
                86          86
                87          87
                88          88
                89          89
                90          90
                91          91
                92          92
                93          93
                94          94
                95          95
                96          96
                97          97
                98          98
                99          99
               100         100
               101         101
               102         102
               103         103
               104         104
               105         105
               106         106
               107         107
               108         108
               109         109
               110         110
               111         111
               112         112
               113         113
               114         114
               115         115
               116         116
               117         117
               118         118
               119         119
               120         120
               121         121
               122         122
               123         123
               124         124
               125         125
               126         126
               127         127
               128         128
               129         129
               130         130
               131         131
               132         132
               133         133
               134         134
               135         135
               136         136
               137         137
               138         138
               139         139
               140         140
               141         141
               142         142
               143         143
               144         144
               145         145
               146         146
               147         147
               148         148
               149         149
               150         150
               151         151
               152         152
               153         153
               154         154
               155         155
               156         156

----------------------------------------------------------------------------------------

 
 

Automatic generation of k-mesh.
 generate k-points for:    1    1    4
Space group operators:
 irot       det(A)        alpha          n_x          n_y          n_z        tau_x        tau_y        tau_z
    1     1.000000     0.000001     1.000000     0.000000     0.000000     0.000000     0.000000     0.000000
 
 Subroutine IBZKPT returns following result:
 ===========================================
 
 Found      3 irreducible k-points:
 
 Following reciprocal coordinates:
            Coordinates               Weight
  0.000000  0.000000  0.000000      1.000000
 -0.000000  0.000000  0.250000      2.000000
 -0.000000  0.000000  0.500000      1.000000
 
 Following cartesian coordinates:
            Coordinates               Weight
  0.000000  0.000000  0.000000      1.000000
  0.000000  0.006813  0.036185      2.000000
  0.000001  0.013627  0.072370      1.000000
 


--------------------------------------------------------------------------------------------------------




 Dimension of arrays:
   k-points           NKPTS =      3   k-points in BZ     NKDIM =      3   number of bands    NBANDS=    400
   number of dos      NEDOS =    301   number of ions     NIONS =    156
   non local maximal  LDIM  =      6   non local SUM 2l+1 LMDIM =     18
   total plane-waves  NPLWV = ******
   max r-space proj   IRMAX =   2315   max aug-charges    IRDMAX=   7424
   dimension x,y,z NGX =   150 NGY =  160 NGZ =   42
   dimension x,y,z NGXF=   300 NGYF=  320 NGZF=   84
   support grid    NGXF=   300 NGYF=  320 NGZF=   84
   ions per type =              80   4  32  24  16
   NGX,Y,Z   is equivalent  to a cutoff of  10.24, 10.58,  9.92 a.u.
   NGXF,Y,Z  is equivalent  to a cutoff of  20.48, 21.15, 19.85 a.u.

 SYSTEM =  flex_MOF                                
 POSCAR =  Zn_H                                    

 Startparameter for this run:
   NWRITE =      2    write-flag & timer
   PREC   = normal    normal or accurate (medium, high low for compatibility)
   ISTART =      0    job   : 0-new  1-cont  2-samecut
   ICHARG =      2    charge: 1-file 2-atom 10-const
   ISPIN  =      1    spin polarized calculation?
   LNONCOLLINEAR =      F non collinear calculations
   LSORBIT =      F    spin-orbit coupling
   INIWAV =      1    electr: 0-lowe 1-rand  2-diag
   LASPH  =      F    aspherical Exc in radial PAW
   METAGGA=      F    non-selfconsistent MetaGGA calc.

 Electronic Relaxation 1
   ENCUT  =  600.0 eV  44.10 Ry    6.64 a.u.  48.63 50.24 14.05*2*pi/ulx,y,z
   ENINI  =  600.0     initial cutoff
   ENAUG  =  644.9 eV  augmentation charge cutoff
   NELM   =     80;   NELMIN=  4; NELMDL=-12     # of ELM steps 
   EDIFF  = 0.1E-05   stopping-criterion for ELM
   LREAL  =      T    real-space projection
   NLSPLINE    = F    spline interpolate recip. space projectors
   LCOMPAT=      F    compatible to vasp.4.4
   GGA_COMPAT  = T    GGA compatible to vasp.4.4-vasp.4.6
   LMAXPAW     = -100 max onsite density
   LMAXMIX     =    2 max onsite mixed and CHGCAR
   VOSKOWN=      0    Vosko Wilk Nusair interpolation
   ROPT   =   -0.00050  -0.00050  -0.00050  -0.00050
   ROPT   =   -0.00050
 Ionic relaxation
   EDIFFG = -.1E-01   stopping-criterion for IOM
   NSW    =   1000    number of steps for IOM
   NBLOCK =      1;   KBLOCK =   1000    inner block; outer block 
   IBRION =      1    ionic relax: 0-MD 1-quasi-New 2-CG
   NFREE  =      0    steps in history (QN), initial steepest desc. (CG)
   ISIF   =      4    stress and relaxation
   IWAVPR =     11    prediction:  0-non 1-charg 2-wave 3-comb
   ISYM   =      0    0-nonsym 1-usesym 2-fastsym
   LCORR  =      T    Harris-Foulkes like correction to forces

   POTIM  = 0.5000    time-step for ionic-motion
   TEIN   =    0.0    initial temperature
   TEBEG  =    0.0;   TEEND  =   0.0 temperature during run
   SMASS  =  -3.00    Nose mass-parameter (am)
   estimated Nose-frequenzy (Omega)   =  0.10E-29 period in steps = 0.13E+47 mass=  -0.135E-25a.u.
   SCALEE = 1.0000    scale energy and forces
   NPACO  =    256;   APACO  = 16.0  distance and # of slots for P.C.
   PSTRESS=    0.0 pullay stress

  Mass of Ions in am
   POMASS =  12.01 65.39  1.00 14.00 16.00
  Ionic Valenz
   ZVAL   =   4.00 12.00  1.00  5.00  6.00
  Atomic Wigner-Seitz radii
   RWIGS  =  -1.00 -1.00 -1.00 -1.00 -1.00
  virtual crystal weights 
   VCA    =   1.00  1.00  1.00  1.00  1.00
   NELECT =     616.0000    total number of electrons
   NUPDOWN=      -1.0000    fix difference up-down

 DOS related values:
   EMIN   =  10.00;   EMAX   =-10.00  energy-range for DOS
   EFERMI =   0.00
   ISMEAR =     0;   SIGMA  =   0.05  broadening in eV -4-tet -1-fermi 0-gaus

 Electronic relaxation 2 (details)
   IALGO  =     48    algorithm
   LDIAG  =      T    sub-space diagonalisation (order eigenvalues)
   LSUBROT=      F    optimize rotation matrix (better conditioning)
   TURBO    =      0    0=normal 1=particle mesh
   IRESTART =      0    0=no restart 2=restart with 2 vectors
   NREBOOT  =      0    no. of reboots
   NMIN     =      0    reboot dimension
   EREF     =   0.00    reference energy to select bands
   IMIX   =      4    mixing-type and parameters
     AMIX     =   0.40;   BMIX     =  1.00
     AMIX_MAG =   1.60;   BMIX_MAG =  1.00
     AMIN     =   0.10
     WC   =   100.;   INIMIX=   1;  MIXPRE=   1;  MAXMIX= -45

 Intra band minimization:
   WEIMIN = 0.0010     energy-eigenvalue tresh-hold
   EBREAK =  0.63E-09  absolut break condition
   DEPER  =   0.30     relativ break condition  

   TIME   =   0.40     timestep for ELM

  volume/ion in A,a.u.               =      26.65       179.87
  Fermi-wavevector in a.u.,A,eV,Ry     =   0.866240  1.636957 10.209437  0.750372
  Thomas-Fermi vector in A             =   1.984601
 
 Write flags
   LWAVE        =      T    write WAVECAR
   LDOWNSAMPLE  =      F    k-point downsampling of WAVECAR
   LCHARG       =      T    write CHGCAR
   LVTOT        =      F    write LOCPOT, total local potential
   LVHAR        =      F    write LOCPOT, Hartree potential only
   LELF         =      F    write electronic localiz. function (ELF)
   LORBIT       =      0    0 simple, 1 ext, 2 COOP (PROOUT), +10 PAW based schemes


 Dipole corrections
   LMONO  =      F    monopole corrections only (constant potential shift)
   LDIPOL =      F    correct potential (dipole corrections)
   IDIPOL =      0    1-x, 2-y, 3-z, 4-all directions 
   EPSILON=  1.0000000 bulk dielectric constant

 Exchange correlation treatment:
   GGA     =    PE    GGA type
   LEXCH   =     8    internal setting for exchange type
   VOSKOWN=      0    Vosko Wilk Nusair interpolation
   LHFCALC =     F    Hartree Fock is set to
   LHFONE  =     F    Hartree Fock one center treatment
   AEXX    =    0.0000 exact exchange contribution

 Linear response parameters
   LEPSILON=     F    determine dielectric tensor
   LRPA    =     F    only Hartree local field effects (RPA)
   LNABLA  =     F    use nabla operator in PAW spheres
   LVEL    =     F    velocity operator in full k-point grid
   LINTERFAST=   F  fast interpolation
   KINTER  =     0    interpolate to denser k-point grid
   CSHIFT  =0.1000    complex shift for real part using Kramers Kronig
   OMEGAMAX=  -1.0    maximum frequency
   DEG_THRESHOLD= 0.2000000E-02 threshold for treating states as degnerate
   RTIME   =   -0.100 relaxation time in fs
  (WPLASMAI=    0.000 imaginary part of plasma frequency in eV, 0.658/RTIME)
   DFIELD  = 0.0000000 0.0000000 0.0000000 field for delta impulse in time
 
 Orbital magnetization related:
   ORBITALMAG=     F  switch on orbital magnetization
   LCHIMAG   =     F  perturbation theory with respect to B field
   DQ        =  0.001000  dq finite difference perturbation B field
   LLRAUG    =     F  two centre corrections for induced B field



--------------------------------------------------------------------------------------------------------


 quasi-Newton-method for relaxation of ions
 charge density and potential will be updated during run
 non-spin polarized calculation
 RMM-DIIS sequential band-by-band
 perform sub-space diagonalisation
    before iterative eigenvector-optimisation
 modified Broyden-mixing scheme, WC =      100.0
 initial mixing is a Kerker type mixing with AMIX =  0.4000 and BMIX =      1.0000
 Hartree-type preconditioning will be used
 using additional bands           92
 real space projection scheme for non local part
 use partial core corrections
 calculate Harris-corrections to forces 
   (improved forces if not selfconsistent)
 use gradient corrections 
 use of overlap-Matrix (Vanderbilt PP)
 Gauss-broadening in eV      SIGMA  =   0.05


--------------------------------------------------------------------------------------------------------


  energy-cutoff  :      600.00
  volume of cell :     4158.05
      direct lattice vectors                 reciprocal lattice vectors
    24.348178981 -0.001233464  0.000026618     0.041070833 -0.000004137 -0.000006527
     0.001750085 24.718004441 -4.654130379     0.000002077  0.041069617  0.003257104
     0.001058525 -0.556230852  7.013649830     0.000001222  0.027253051  0.144740472

  length of vectors
    24.348179012 25.152349317  7.035671810     0.041070834  0.041198570  0.147283852


 
 k-points in units of 2pi/SCALE and weight: read from INCAR                         
   0.00000000  0.00000000  0.00000000       0.250
   0.00000031  0.00681326  0.03618512       0.500
   0.00000061  0.01362653  0.07237024       0.250
 
 k-points in reciprocal lattice and weights: read from INCAR                         
   0.00000000  0.00000000  0.00000000       0.250
  -0.00000000  0.00000000  0.25000000       0.500
  -0.00000000  0.00000000  0.50000000       0.250
 
 position of ions in fractional coordinates (direct lattice) 
   0.93306198  0.96814600  0.15068618
   0.89948980  0.95657947  0.43146782
   0.93282235  0.78752689  0.89346583
   0.56673327  0.46819496  0.65143618
   0.60045132  0.29926292  0.11358894
   0.10036468  0.79907403  0.11290313
   0.60033474  0.45659198  0.93208764
   0.56690754  0.28755964  0.39420363
   0.39940200  0.45652468  0.43225970
   0.06676888  0.78747803  0.39359958
   0.10039593  0.95641952  0.93137966
   0.39940003  0.29918332  0.61370556
   0.89930309  0.79923764  0.61287257
   0.06683601  0.96810579  0.65079397
   0.43292258  0.28756046  0.89442527
   0.43301773  0.46821288  0.15171452
   0.82232859  0.02169560  0.10648934
   0.84054875  0.06823531  0.46280117
   0.84016361  0.68765042  0.58159571
   0.65930348  0.56824231  0.96314793
   0.65952541  0.18765488  0.08211667
   0.17761214  0.73411817  0.43814101
   0.67744324  0.52167779  0.60677779
   0.67784946  0.23427386  0.43822109
   0.32221778  0.52158653  0.10725591
   0.15943314  0.68748795  0.08197154
   0.15936885  0.06808954  0.96293331
   0.34038310  0.18758743  0.58237881
   0.82186705  0.73431410  0.93770378
   0.17760544  0.02158691  0.60659437
   0.32202892  0.23417822  0.93852446
   0.34038355  0.56820157  0.46354522
   0.78010899  0.06414507  0.10495307
   0.79934315  0.11083034  0.45187575
   0.79888800  0.64511792  0.59257897
   0.70047309  0.61084536  0.95198735
   0.70079718  0.14510669  0.09295356
   0.21982475  0.69168242  0.43996306
   0.71961924  0.56414310  0.60499467
   0.72005218  0.19180942  0.43979048
   0.27997480  0.56400261  0.10554500
   0.20066828  0.64493582  0.09310148
   0.20058018  0.11068843  0.95209308
   0.29911745  0.14502740  0.59318382
   0.77969265  0.69184182  0.93945883
   0.21981829  0.06404594  0.60511389
   0.27984975  0.19169056  0.94008708
   0.29914210  0.61075644  0.45247084
   0.75053660  0.06151608  0.93372145
   0.78919702  0.15422317  0.61687419
   0.78868178  0.60174858  0.42758562
   0.71063599  0.65424898  0.11691441
   0.71098005  0.10175370  0.92787909
   0.24937766  0.69437936  0.61128723
   0.74914263  0.56151056  0.43362400
   0.74965868  0.19447136  0.61097873
   0.25042228  0.56131565  0.93423188
   0.21087641  0.60154508  0.92816752
   0.21070301  0.15407122  0.11713012
   0.28894132  0.10169054  0.42806928
   0.75013806  0.69450754  0.11078965
   0.24938974  0.06144441  0.43387169
   0.25023229  0.19432785  0.11127049
   0.28893020  0.65415894  0.61738321
   0.89167525  0.98637111  0.29089884
   0.89139628  0.76943688  0.75337147
   0.60814074  0.48639307  0.79151583
   0.60833506  0.26945423  0.25407046
   0.10820420  0.76930811  0.25354831
   0.39159054  0.48636413  0.29182218
   0.10823856  0.98625431  0.79093949
   0.39152045  0.26940283  0.75428851
   0.77007451  0.10751169  0.27543468
   0.76965953  0.64844242  0.76912066
   0.72967923  0.60752444  0.77539951
   0.73006478  0.14842348  0.26938024
   0.22988979  0.64828230  0.26965222
   0.26990651  0.60739148  0.27592073
   0.22985098  0.10739082  0.77565131
   0.26985041  0.14831488  0.76963216
   0.01569666  0.87770357  0.02177677
   0.98408687  0.87780814  0.52196693
   0.48408448  0.37781303  0.52277895
   0.51571871  0.37781536  0.02273203
   0.31216851  0.09990918  0.29416089
   0.74053208  0.52777376  0.30434083
   0.74109829  0.22823172  0.74027277
   0.75912669  0.02778601  0.80437319
   0.75870875  0.72828079  0.24001910
   0.68744120  0.65607138  0.25091611
   0.18767393  0.59971139  0.79418209
   0.18745879  0.15587536  0.25102022
   0.81188799  0.59993135  0.29359383
   0.25877225  0.22808464  0.24058795
   0.25903029  0.52756105  0.80499425
   0.24076556  0.72814118  0.74051579
   0.31212815  0.65600714  0.75138629
   0.68774810  0.09994998  0.79398478
   0.81242638  0.15603774  0.75077575
   0.24080238  0.02772856  0.30448823
   0.62242548  0.45857021  0.06779264
   0.37732640  0.29723312  0.47800148
   0.44171363  0.48003006  0.01724369
   0.05807889  0.77572506  0.52820281
   0.12247304  0.95835573  0.06707988
   0.44157862  0.27579167  0.02901921
   0.94174571  0.97991769  0.01612083
   0.87722418  0.79733270  0.47721211
   0.05816422  0.97991779  0.51630387
   0.55804281  0.47996450  0.51688045
   0.62253368  0.29735176  0.97790457
   0.87741471  0.95857132  0.56723346
   0.55824885  0.27575802  0.52873727
   0.37730793  0.45845913  0.56794437
   0.12246299  0.79710451  0.97720478
   0.94147301  0.77572654  0.02800263
   0.96355598  0.92990559  0.20405253
   0.94271648  0.92251879  0.37616639
   0.96343072  0.82568529  0.84004075
   0.53624051  0.42996249  0.70486847
   0.55714085  0.33320930  0.16881517
   0.05707038  0.83305363  0.16795159
   0.55709396  0.42255104  0.87689900
   0.53631691  0.32573871  0.34082984
   0.44266555  0.42250769  0.37697403
   0.03622039  0.82564747  0.34001749
   0.05713971  0.92240807  0.87606450
   0.44268306  0.33316300  0.66887863
   0.94262518  0.83316706  0.66802977
   0.03630989  0.92987024  0.70408251
   0.46349061  0.32573856  0.84095387
   0.46352889  0.42996844  0.20499898
   0.85056544  0.02640170  0.28709666
   0.85020056  0.72949371  0.75721212
   0.64924803  0.52640396  0.78752386
   0.64951546  0.22948884  0.25779738
   0.14935966  0.72933540  0.25754591
   0.35043751  0.52634942  0.28791998
   0.14936564  0.02626959  0.78720691
   0.35036589  0.22941599  0.75806351
   0.83272362  0.98419430  0.95981155
   0.86493742  0.06870418  0.61617331
   0.86461106  0.68710917  0.42825433
   0.63497960  0.56871158  0.11667220
   0.63506473  0.18714506  0.92885569
   0.16723804  0.77168379  0.58462969
   0.66705430  0.48414841  0.46019953
   0.66755390  0.27185374  0.58474437
   0.33264376  0.48407459  0.96064785
   0.13505700  0.68697054  0.92853246
   0.13495793  0.06855189  0.11628666
   0.36485674  0.18707967  0.42910935
   0.83215512  0.77192336  0.08413027
   0.16722015  0.98410123  0.45986924
   0.33230074  0.27176045  0.08505972
   0.36478043  0.56871709  0.61693742
 
 position of ions in cartesian coordinates  (Angst):
  22.72021396 23.84566994 -3.44899277
  21.90306948 23.40363050 -1.42585744
  22.71484964 18.96796926  2.60122850
  13.80043200 11.20979720  2.38991994
  14.62054013  7.33325985 -0.59611962
   2.44521505 19.68859153 -2.92712904
  14.61884330 10.76684609  4.41231370
  13.80408684  6.88793294  1.42648128
   9.72596787 11.04345014  0.90700342
   1.62749546 19.24587089 -0.90445400
   2.44711788 23.12259604  2.08107232
   9.72583669  7.05335994  2.91188835
  21.89844015 19.41355171  0.57874132
   1.62971817 23.56756915  0.05875223
  10.54232660  6.60987976  4.93485327
  10.54417324 11.48836569 -1.11503975
  20.02235442  0.47602499  0.64592668
  20.46644073  1.42817965  2.92837165
  20.45827298 16.67280823  0.87871629
  16.05485306 13.50927017  4.11052606
  16.05865807  4.59196480 -0.29741518
   4.32628062 17.90200954 -0.34370931
  16.49606443 12.55648991  1.82778847
  16.50527375  5.54619418  1.98320625
   7.84644262 12.83252163 -1.67526776
   3.88319668 16.94753833 -2.62473461
   3.88147962  1.14722786  6.43678370
   8.28865342  4.31243000  3.21155378
  20.01324366 17.62818570  3.15915428
   4.32504899  0.19595981  4.15397689
   7.84222098  5.26598478  5.49259454
   8.28920456 13.78655099  0.60666872
  18.99445672  1.52619771  0.43758534
  19.46322248  2.48717153  2.65350075
  19.45322422 15.61543148  1.15369978
  17.05732083 14.56848959  3.83397060
  17.06348751  3.53417978 -0.02338309
   5.35400849 16.85201701 -0.13342746
  17.52304583 13.60708724  1.61764440
  17.53276065  4.49563280  2.19184954
   6.81797533 13.88196622 -1.88467852
   4.88713447 15.88949308 -2.34862888
   4.88496372  2.20616627  6.16249437
   7.28384691  3.25447175  3.48541515
  18.98630141 16.57743155  3.36913400
   5.35292767  1.24623365  3.94598467
   6.81516248  4.21495751  5.70129617
   7.28511315 14.84463328  0.33093990
  18.27529538  1.00026438  6.26251138
  19.21643307  3.46799114  3.60878584
  19.20447086 14.63521495  0.19834043
  17.30396098 16.10582122 -2.22494437
  17.31222976  1.99815637  6.03426299
   6.07375427 16.82334763  1.05562916
  18.24170060 13.63730151  0.42796349
  18.25381075  4.46617399  3.38011576
   6.09929775 13.35464530  3.93994571
   5.13649173 14.35245844  3.71017835
   5.13062833  3.74292184  0.10444771
   7.03582597  2.27512547  2.52905470
  18.26582851 17.10429060 -2.45526886
   6.07275281  1.27714266  2.75706050
   6.09315839  4.74119589 -0.12400823
   7.03672259 15.82573961  1.28557633
  21.71270284 24.21821872 -2.55041344
  21.70602011 18.59879635  1.70284781
  14.80880862 11.58165044  3.28769426
  14.81259145  6.51829857  0.52790236
   2.63619001 18.87459653 -1.80215830
   9.53567658 11.85914722 -0.21685307
   2.63797517 23.93815993  0.95721936
   9.53407979  6.23905898  4.03648996
  18.75039174  2.50331925  1.43144949
  18.74175704 15.59944457  2.37642791
  17.76824457 14.58459072  2.61090212
  17.77629280  3.51799424  1.19857589
   5.59881774 15.87397225 -1.12593797
   6.57308710 14.85969684 -0.89166062
   5.59746184  2.22276205  4.94034192
   6.57144036  3.23762197  4.70766085
   0.38374416 21.68294839 -3.93221180
  23.96281202 21.40611746 -0.42451407
  11.78779004  9.04740135  1.90821026
  12.55749667  9.32556142 -1.59895374
   7.60122087  2.30554908  1.59815943
  18.03185350 12.87531687 -0.32176814
  18.04557689  5.22875594  4.12981353
  18.48425271  0.23846110  5.51229239
  18.47470502 17.86720589 -1.70608365
  16.73935506 16.07636016 -1.29358575
   4.57140863 14.38168875  2.77898506
   4.56481879  3.71307146  1.03510862
  19.76935471 14.66479846 -0.73297278
   6.30128699  5.50365562  0.62587084
   6.30869135 12.59217433  3.19061672
   5.86426120 17.58600222  1.80486087
   7.60169558 15.79685819  2.21682585
  16.74642910  2.02807694  5.10356931
  19.78217070  3.43833471  4.53947989
   5.86347020  0.51573195  2.00652789
  15.15580126 11.29646439 -1.65875517
   9.18823696  7.08066500  1.96918337
  10.75578097 11.85524890 -2.11316951
   1.41603188 18.88050103  0.09430553
   2.98374375 23.65117816 -3.98983448
  10.75214857  6.80033363 -1.08002808
  22.93152509 24.21148129 -4.44757378
  21.36071187 19.44195113 -0.36386840
   1.41845426 23.93435648 -0.93948907
  13.58871324 11.57557140  1.39141596
  15.15911693  6.80523365  5.47478292
  21.36572841 23.37737512 -0.48291571
  13.59338528  6.52139943  2.42497913
   9.18816443 11.01582126  1.84964442
   2.98418016 19.15913020  3.14394709
  22.92454049 19.15767474 -3.41390670
  23.46267687 22.87072165 -2.89672318
  22.95544219 22.59242532 -1.65519831
  23.46011779 19.94084781  2.04893028
  13.05797845 10.23508370  2.94261342
  13.56612694  8.14168159 -0.36677419
   1.39119548 20.49793313 -2.69918507
  13.56589125  9.95617293  4.18366974
  13.05927088  7.86136924  0.87444501
  10.77923839 10.23331646  0.67756976
   0.88370547 20.21918482 -1.45790635
   1.39378955 22.31272210  1.85140374
  10.77981745  7.86252758  3.14070822
  22.95337178 20.22148566  0.80768382
   0.88645241 22.59285940  0.61045181
  11.28661248  7.58327092  4.38213861
  11.28705379 10.51336325 -0.56332574
  20.71006973  0.49185612  1.89074116
  20.70291351 17.60939537  1.91568446
  15.80976204 12.57280955  3.07348118
  15.81519326  5.52831028  0.74004684
   3.63818466 17.88427641 -1.58808121
   8.53374122 12.84972505 -0.43031960
   3.63766062  0.21127884  5.39893550
   8.53197527  5.24861486  4.24906942
  20.27804206 23.79241508  2.15123571
  21.06042354  1.35442866  4.00188866
  21.05336065 16.74469271 -0.19424670
  15.46171581 13.99173537 -1.82854298
  15.46398051  4.10841094  5.64368792
   4.07391098 18.74908797  0.50887542
  16.24289192 11.71038262  0.97440626
  16.25481649  6.39360557  2.83596731
   8.10113396 11.43060558  4.48471022
   3.29057711 16.46389578  3.31515469
   3.28622296  1.62961714  0.49654808
   8.88437887  4.38510224  2.13893928
  20.26290177 19.03258265 -3.00254955
   4.07371522 24.06901880 -1.35476912
   8.09148363  6.66965317 -0.66822063
   8.88338744 13.71394189  1.68010929
 


--------------------------------------------------------------------------------------------------------


 k-point  1 :   0.0000 0.0000 0.0000  plane waves:  138669
 k-point  2 :  -0.0000 0.0000 0.2500  plane waves:  138823
 k-point  3 :  -0.0000 0.0000 0.5000  plane waves:  138834

 maximum and minimum number of plane-waves per node :     34828    34508

 maximum number of plane-waves:    138834
 maximum index in each direction: 
   IXMAX=   48   IYMAX=   50   IZMAX=   14
   IXMIN=  -48   IYMIN=  -50   IZMIN=  -14


 real space projection operators:
  total allocation   :      12313.56 KBytes
  max/ min on nodes  :       3115.69       3042.34


 parallel 3D FFT for wavefunctions:
    minimum data exchange during FFTs selected (reduces bandwidth)
 parallel 3D FFT for charge:
    minimum data exchange during FFTs selected (reduces bandwidth)


 total amount of memory used by VASP MPI-rank0   112764. kBytes
=======================================================================

   base      :      30000. kBytes
   nonlr-proj:       6279. kBytes
   fftplans  :      12448. kBytes
   grid      :      21268. kBytes
   one-center:        606. kBytes
   wavefun   :      42163. kBytes
 
     INWAV:  cpu time    0.0001: real time    0.0006
 Broyden mixing: mesh for mixing (old mesh)
   NGX = 97   NGY =101   NGZ = 29
  (NGX  =300   NGY  =320   NGZ  = 84)
  gives a total of 284113 points

 initial charge density was supplied:
 charge density of overlapping atoms calculated
 number of electron     616.0000000 magnetization 
 keeping initial charge density in first step


--------------------------------------------------------------------------------------------------------


 Maximum index for non-local projection operator          651
 Maximum index for augmentation-charges          376 (set IRDMAX)


--------------------------------------------------------------------------------------------------------


 First call to EWALD:  gamma=   0.110
 Maximum number of real-space cells 2x 2x 6
 Maximum number of reciprocal cells 4x 4x 1

    FEWALD:  cpu time    0.0156: real time    0.0156


--------------------------------------- Iteration      1(   1)  ---------------------------------------


    POTLOK:  cpu time    0.1959: real time    0.2166
    SETDIJ:  cpu time    0.0376: real time    0.0448
    EDDIAG:  cpu time    3.0664: real time    3.1007
  RMM-DIIS:  cpu time    4.0765: real time    4.0832
    ORTHCH:  cpu time    0.6440: real time    0.6451
       DOS:  cpu time    0.0069: real time    0.0072
    --------------------------------------------
      LOOP:  cpu time    8.0273: real time    8.0977

 eigenvalue-minimisations  :  1200
 total energy-change (2. order) : 0.8491387E+04  (-0.2143231E+05)
 number of electron     616.0000000 magnetization 
 augmentation part      616.0000000 magnetization 

 Free energy of the ion-electron system (eV)
  ---------------------------------------------------
  alpha Z        PSCENC =       464.61771753
  Ewald energy   TEWEN  =     44149.37881402
  -Hartree energ DENC   =    -70985.65849899
  -exchange      EXHF   =         0.00000000
  -V(xc)+E(xc)   XCENC  =      2270.52141851
  PAW double counting   =     25034.14638475   -25847.60581054
  entropy T*S    EENTRO =        -0.10982349
  eigenvalues    EBANDS =       972.41729202
  atomic energy  EATOM  =     32433.67991533
  Solvation  Ediel_sol  =         0.00000000
  ---------------------------------------------------
  free energy    TOTEN  =      8491.38740913 eV

  energy without entropy =     8491.49723262  energy(sigma->0) =     8491.44232088


--------------------------------------------------------------------------------------------------------




--------------------------------------- Iteration      1(   2)  ---------------------------------------


    EDDIAG:  cpu time    3.0037: real time    3.0072
  RMM-DIIS:  cpu time    4.0032: real time    4.0082
    ORTHCH:  cpu time    0.6354: real time    0.6354
       DOS:  cpu time    0.0030: real time    0.0030
    --------------------------------------------
      LOOP:  cpu time    7.6452: real time    7.6538

 eigenvalue-minimisations  :  1200
 total energy-change (2. order) :-0.5243191E+04  (-0.6716622E+04)
 number of electron     616.0000000 magnetization 
 augmentation part      616.0000000 magnetization 

 Free energy of the ion-electron system (eV)
  ---------------------------------------------------
  alpha Z        PSCENC =       464.61771753
  Ewald energy   TEWEN  =     44149.37881402
  -Hartree energ DENC   =    -70985.65849899
  -exchange      EXHF   =         0.00000000
  -V(xc)+E(xc)   XCENC  =      2270.52141851
  PAW double counting   =     25034.14638475   -25847.60581054
  entropy T*S    EENTRO =        -0.04873841
  eigenvalues    EBANDS =     -4270.83470660
  atomic energy  EATOM  =     32433.67991533
  Solvation  Ediel_sol  =         0.00000000
  ---------------------------------------------------
  free energy    TOTEN  =      3248.19649559 eV

  energy without entropy =     3248.24523401  energy(sigma->0) =     3248.22086480


--------------------------------------------------------------------------------------------------------




--------------------------------------- Iteration      1(   3)  ---------------------------------------


    EDDIAG:  cpu time    2.9897: real time    2.9940
  RMM-DIIS:  cpu time    4.0124: real time    4.0166
    ORTHCH:  cpu time    0.6341: real time    0.6351
       DOS:  cpu time    0.0019: real time    0.0019
    --------------------------------------------
      LOOP:  cpu time    7.6381: real time    7.6475

 eigenvalue-minimisations  :  1200
 total energy-change (2. order) :-0.2054053E+04  (-0.2962692E+04)
 number of electron     616.0000000 magnetization 
 augmentation part      616.0000000 magnetization 

 Free energy of the ion-electron system (eV)
  ---------------------------------------------------
  alpha Z        PSCENC =       464.61771753
  Ewald energy   TEWEN  =     44149.37881402
  -Hartree energ DENC   =    -70985.65849899
  -exchange      EXHF   =         0.00000000
  -V(xc)+E(xc)   XCENC  =      2270.52141851
  PAW double counting   =     25034.14638475   -25847.60581054
  entropy T*S    EENTRO =        -0.02990763
  eigenvalues    EBANDS =     -6324.90666610
  atomic energy  EATOM  =     32433.67991533
  Solvation  Ediel_sol  =         0.00000000
  ---------------------------------------------------
  free energy    TOTEN  =      1194.14336688 eV

  energy without entropy =     1194.17327451  energy(sigma->0) =     1194.15832069


--------------------------------------------------------------------------------------------------------




--------------------------------------- Iteration      1(   4)  ---------------------------------------


    EDDIAG:  cpu time    3.0013: real time    3.0059
  RMM-DIIS:  cpu time    4.0109: real time    4.0161
    ORTHCH:  cpu time    0.6471: real time    0.6473
       DOS:  cpu time    0.0089: real time    0.0089
    --------------------------------------------
      LOOP:  cpu time    7.6683: real time    7.6783

 eigenvalue-minimisations  :  1200
 total energy-change (2. order) :-0.1471168E+04  (-0.1484974E+04)
 number of electron     616.0000000 magnetization 
 augmentation part      616.0000000 magnetization 

 Free energy of the ion-electron system (eV)
  ---------------------------------------------------
  alpha Z        PSCENC =       464.61771753
  Ewald energy   TEWEN  =     44149.37881402
  -Hartree energ DENC   =    -70985.65849899
  -exchange      EXHF   =         0.00000000
  -V(xc)+E(xc)   XCENC  =      2270.52141851
  PAW double counting   =     25034.14638475   -25847.60581054
  entropy T*S    EENTRO =        -0.00388431
  eigenvalues    EBANDS =     -7796.10090057
  atomic energy  EATOM  =     32433.67991533
  Solvation  Ediel_sol  =         0.00000000
  ---------------------------------------------------
  free energy    TOTEN  =      -277.02484427 eV

  energy without entropy =     -277.02095996  energy(sigma->0) =     -277.02290212


--------------------------------------------------------------------------------------------------------




--------------------------------------- Iteration      1(   5)  ---------------------------------------


    EDDIAG:  cpu time    2.9954: real time    2.9999
  RMM-DIIS:  cpu time    4.0139: real time    4.0181
    ORTHCH:  cpu time    0.6336: real time    0.6346
       DOS:  cpu time    0.0027: real time    0.0027
    --------------------------------------------
      LOOP:  cpu time    7.6456: real time    7.6553

 eigenvalue-minimisations  :  1200
 total energy-change (2. order) :-0.6363390E+03  (-0.5664886E+03)
 number of electron     616.0000000 magnetization 
 augmentation part      616.0000000 magnetization 

 Free energy of the ion-electron system (eV)
  ---------------------------------------------------
  alpha Z        PSCENC =       464.61771753
  Ewald energy   TEWEN  =     44149.37881402
  -Hartree energ DENC   =    -70985.65849899
  -exchange      EXHF   =         0.00000000
  -V(xc)+E(xc)   XCENC  =      2270.52141851
  PAW double counting   =     25034.14638475   -25847.60581054
  entropy T*S    EENTRO =        -0.00069201
  eigenvalues    EBANDS =     -8432.44309336
  atomic energy  EATOM  =     32433.67991533
  Solvation  Ediel_sol  =         0.00000000
  ---------------------------------------------------
  free energy    TOTEN  =      -913.36384476 eV

  energy without entropy =     -913.36315275  energy(sigma->0) =     -913.36349876


--------------------------------------------------------------------------------------------------------




--------------------------------------- Iteration      1(   6)  ---------------------------------------


    EDDIAG:  cpu time    2.9957: real time    2.9990
  RMM-DIIS:  cpu time    4.0185: real time    4.0240
    ORTHCH:  cpu time    0.6318: real time    0.6319
       DOS:  cpu time    0.0016: real time    0.0016
    --------------------------------------------
      LOOP:  cpu time    7.6477: real time    7.6565

 eigenvalue-minimisations  :  1200
 total energy-change (2. order) :-0.2243519E+03  (-0.1959543E+03)
 number of electron     616.0000000 magnetization 
 augmentation part      616.0000000 magnetization 

 Free energy of the ion-electron system (eV)
  ---------------------------------------------------
  alpha Z        PSCENC =       464.61771753
  Ewald energy   TEWEN  =     44149.37881402
  -Hartree energ DENC   =    -70985.65849899
  -exchange      EXHF   =         0.00000000
  -V(xc)+E(xc)   XCENC  =      2270.52141851
  PAW double counting   =     25034.14638475   -25847.60581054
  entropy T*S    EENTRO =        -0.00000000
  eigenvalues    EBANDS =     -8656.79569711
  atomic energy  EATOM  =     32433.67991533
  Solvation  Ediel_sol  =         0.00000000
  ---------------------------------------------------
  free energy    TOTEN  =     -1137.71575650 eV

  energy without entropy =    -1137.71575650  energy(sigma->0) =    -1137.71575650


--------------------------------------------------------------------------------------------------------




--------------------------------------- Iteration      1(   7)  ---------------------------------------


    EDDIAG:  cpu time    2.9944: real time    3.0005
  RMM-DIIS:  cpu time    4.0160: real time    4.0205
    ORTHCH:  cpu time    0.6348: real time    0.6358
       DOS:  cpu time    0.0015: real time    0.0015
    --------------------------------------------
      LOOP:  cpu time    7.6467: real time    7.6583

 eigenvalue-minimisations  :  1200
 total energy-change (2. order) :-0.6480455E+02  (-0.6059079E+02)
 number of electron     616.0000000 magnetization 
 augmentation part      616.0000000 magnetization 

 Free energy of the ion-electron system (eV)
  ---------------------------------------------------
  alpha Z        PSCENC =       464.61771753
  Ewald energy   TEWEN  =     44149.37881402
  -Hartree energ DENC   =    -70985.65849899
  -exchange      EXHF   =         0.00000000
  -V(xc)+E(xc)   XCENC  =      2270.52141851
  PAW double counting   =     25034.14638475   -25847.60581054
  entropy T*S    EENTRO =        -0.00000000
  eigenvalues    EBANDS =     -8721.60024694
  atomic energy  EATOM  =     32433.67991533
  Solvation  Ediel_sol  =         0.00000000
  ---------------------------------------------------
  free energy    TOTEN  =     -1202.52030633 eV

  energy without entropy =    -1202.52030633  energy(sigma->0) =    -1202.52030633


--------------------------------------------------------------------------------------------------------




--------------------------------------- Iteration      1(   8)  ---------------------------------------


    EDDIAG:  cpu time    2.9971: real time    3.0008
  RMM-DIIS:  cpu time    4.0160: real time    4.0210
    ORTHCH:  cpu time    0.6315: real time    0.6325
       DOS:  cpu time    0.0013: real time    0.0013
    --------------------------------------------
      LOOP:  cpu time    7.6459: real time    7.6556

 eigenvalue-minimisations  :  1200
 total energy-change (2. order) :-0.2412009E+02  (-0.2074168E+02)
 number of electron     616.0000000 magnetization 
 augmentation part      616.0000000 magnetization 

 Free energy of the ion-electron system (eV)
  ---------------------------------------------------
  alpha Z        PSCENC =       464.61771753
  Ewald energy   TEWEN  =     44149.37881402
  -Hartree energ DENC   =    -70985.65849899
  -exchange      EXHF   =         0.00000000
  -V(xc)+E(xc)   XCENC  =      2270.52141851
  PAW double counting   =     25034.14638475   -25847.60581054
  entropy T*S    EENTRO =        -0.00000000
  eigenvalues    EBANDS =     -8745.72033720
  atomic energy  EATOM  =     32433.67991533
  Solvation  Ediel_sol  =         0.00000000
  ---------------------------------------------------
  free energy    TOTEN  =     -1226.64039659 eV

  energy without entropy =    -1226.64039659  energy(sigma->0) =    -1226.64039659


--------------------------------------------------------------------------------------------------------




--------------------------------------- Iteration      1(   9)  ---------------------------------------


    EDDIAG:  cpu time    2.9952: real time    2.9985
  RMM-DIIS:  cpu time    8.2850: real time    8.3273
    ORTHCH:  cpu time    0.6351: real time    0.6361
       DOS:  cpu time    0.0010: real time    0.0010
    --------------------------------------------
      LOOP:  cpu time   11.9163: real time   11.9629

 eigenvalue-minimisations  :  2779
 total energy-change (2. order) :-0.1290456E+02  (-0.1236230E+02)
 number of electron     616.0000000 magnetization 
 augmentation part      616.0000000 magnetization 

 Free energy of the ion-electron system (eV)
  ---------------------------------------------------
  alpha Z        PSCENC =       464.61771753
  Ewald energy   TEWEN  =     44149.37881402
[...]
   -.171E+02 0.186E+03 -.409E+02   -.280E+01 -.177E+03 0.519E+02   0.200E+02 -.896E+01 -.110E+02   0.148E-04 0.128E-05 -.668E-05
   -.197E+03 -.710E+02 -.962E+02   0.191E+03 0.549E+02 0.111E+03   0.585E+01 0.161E+02 -.153E+02   0.115E-05 0.980E-05 -.118E-04
   0.196E+03 0.718E+02 0.963E+02   -.190E+03 -.558E+02 -.112E+03   -.588E+01 -.161E+02 0.153E+02   0.896E-07 -.835E-05 0.116E-04
   0.196E+03 0.715E+02 0.963E+02   -.190E+03 -.554E+02 -.112E+03   -.590E+01 -.161E+02 0.153E+02   -.703E-06 -.927E-05 0.121E-04
   -.178E+02 -.185E+03 0.414E+02   -.209E+01 0.176E+03 -.524E+02   0.200E+02 0.898E+01 0.110E+02   0.157E-04 -.110E-05 0.693E-05
   0.176E+02 0.186E+03 -.412E+02   0.228E+01 -.177E+03 0.522E+02   -.200E+02 -.896E+01 -.110E+02   -.140E-04 0.174E-05 -.667E-05
   0.173E+02 -.185E+03 0.413E+02   0.259E+01 0.176E+03 -.523E+02   -.200E+02 0.899E+01 0.110E+02   -.144E-04 -.966E-06 0.659E-05
   0.946E+02 -.104E+03 -.117E+02   -.951E+02 0.105E+03 0.115E+02   0.484E+00 -.465E+00 0.182E+00   -.551E-05 0.130E-04 0.418E-05
   0.946E+02 0.104E+03 0.116E+02   -.951E+02 -.105E+03 -.114E+02   0.468E+00 0.474E+00 -.191E+00   -.514E-05 -.131E-04 -.596E-05
   -.947E+02 -.104E+03 -.117E+02   0.952E+02 0.105E+03 0.115E+02   -.489E+00 -.466E+00 0.185E+00   0.562E-05 0.111E-04 0.212E-05
   -.946E+02 0.104E+03 0.116E+02   0.950E+02 -.105E+03 -.114E+02   -.473E+00 0.473E+00 -.187E+00   0.467E-05 -.105E-04 -.458E-05
   -.943E+02 0.104E+03 0.116E+02   0.948E+02 -.105E+03 -.114E+02   -.469E+00 0.467E+00 -.189E+00   0.565E-05 -.147E-04 -.620E-05
   0.947E+02 -.104E+03 -.118E+02   -.952E+02 0.105E+03 0.116E+02   0.489E+00 -.461E+00 0.174E+00   -.561E-05 0.127E-04 0.579E-05
   -.950E+02 -.104E+03 -.117E+02   0.955E+02 0.105E+03 0.115E+02   -.495E+00 -.457E+00 0.176E+00   0.482E-05 0.113E-04 0.480E-05
   0.945E+02 0.104E+03 0.115E+02   -.950E+02 -.105E+03 -.113E+02   0.473E+00 0.471E+00 -.195E+00   -.497E-05 -.127E-04 -.586E-05
   0.239E+03 0.162E+03 0.225E+03   -.228E+03 -.199E+03 -.263E+03   -.111E+02 0.374E+02 0.381E+02   -.123E-04 0.345E-04 -.141E-04
   -.159E+03 -.258E+03 -.288E+03   0.185E+03 0.255E+03 0.336E+03   -.263E+02 0.327E+01 -.478E+02   -.278E-04 0.309E-04 0.421E-04
   -.159E+03 0.258E+03 0.288E+03   0.186E+03 -.255E+03 -.336E+03   -.264E+02 -.318E+01 0.478E+02   -.281E-04 -.303E-04 -.420E-04
   0.159E+03 -.258E+03 -.288E+03   -.185E+03 0.255E+03 0.336E+03   0.263E+02 0.327E+01 -.478E+02   0.295E-04 0.303E-04 0.409E-04
   0.160E+03 0.259E+03 0.288E+03   -.186E+03 -.255E+03 -.336E+03   0.264E+02 -.322E+01 0.478E+02   0.275E-04 -.291E-04 -.441E-04
   -.239E+03 -.163E+03 -.224E+03   0.228E+03 0.200E+03 0.262E+03   0.111E+02 -.375E+02 -.380E+02   0.131E-04 -.366E-04 0.134E-04
   -.239E+03 0.162E+03 0.224E+03   0.228E+03 -.199E+03 -.262E+03   0.111E+02 0.375E+02 0.380E+02   0.115E-04 0.327E-04 -.145E-04
   -.240E+03 -.163E+03 -.225E+03   0.229E+03 0.201E+03 0.263E+03   0.110E+02 -.376E+02 -.380E+02   0.126E-04 -.316E-04 0.158E-04
   0.239E+03 0.162E+03 0.225E+03   -.228E+03 -.200E+03 -.263E+03   -.112E+02 0.375E+02 0.380E+02   -.128E-04 0.331E-04 -.164E-04
   0.159E+03 0.258E+03 0.288E+03   -.186E+03 -.255E+03 -.336E+03   0.263E+02 -.322E+01 0.478E+02   0.294E-04 -.325E-04 -.403E-04
   0.159E+03 -.258E+03 -.288E+03   -.185E+03 0.255E+03 0.336E+03   0.264E+02 0.327E+01 -.478E+02   0.281E-04 0.298E-04 0.431E-04
   -.160E+03 0.259E+03 0.288E+03   0.186E+03 -.255E+03 -.336E+03   -.264E+02 -.322E+01 0.478E+02   -.278E-04 -.311E-04 -.425E-04
   0.240E+03 -.164E+03 -.225E+03   -.229E+03 0.202E+03 0.263E+03   -.110E+02 -.376E+02 -.380E+02   -.142E-04 -.363E-04 0.134E-04
   -.239E+03 0.162E+03 0.225E+03   0.228E+03 -.199E+03 -.263E+03   0.111E+02 0.374E+02 0.381E+02   0.125E-04 0.316E-04 -.169E-04
   0.240E+03 -.163E+03 -.225E+03   -.229E+03 0.201E+03 0.263E+03   -.110E+02 -.376E+02 -.380E+02   -.122E-04 -.337E-04 0.153E-04
   -.159E+03 -.258E+03 -.288E+03   0.186E+03 0.255E+03 0.336E+03   -.264E+02 0.322E+01 -.478E+02   -.283E-04 0.302E-04 0.433E-04
 -----------------------------------------------------------------------------------------------
   0.809E-01 0.839E-01 -.166E+00   -.568E-12 0.284E-13 -.171E-12   -.791E-01 -.123E+00 0.111E+00   0.126E-04 -.199E-04 -.244E-04
 
 
 POSITION                                       TOTAL-FORCE (eV/Angst)
 -----------------------------------------------------------------------------------
     22.72021     23.84567     -3.44899        -0.002785     -0.000326     -0.003740
     21.90307     23.40363     -1.42586         0.004135      0.003434      0.001468
     22.71485     18.96797      2.60123        -0.001539      0.001511      0.003436
     13.80043     11.20980      2.38992         0.001029     -0.000313     -0.002773
     14.62054      7.33326     -0.59612        -0.002857     -0.003301     -0.001686
      2.44522     19.68859     -2.92713        -0.002140     -0.003123     -0.002998
     14.61884     10.76685      4.41231        -0.002283      0.005197      0.001440
     13.80409      6.88793      1.42648         0.001487      0.001118      0.003130
      9.72597     11.04345      0.90700         0.002658      0.003554      0.001589
      1.62750     19.24587     -0.90445         0.002481     -0.000048      0.002805
      2.44712     23.12260      2.08107        -0.002423      0.004837      0.002157
      9.72584      7.05336      2.91189         0.002587     -0.003726     -0.001725
     21.89844     19.41355      0.57874         0.003080     -0.002239     -0.003161
      1.62972     23.56757      0.05875         0.001704     -0.000235     -0.003806
     10.54233      6.60988      4.93485        -0.002092      0.000243      0.003991
     10.54417     11.48837     -1.11504        -0.001203     -0.001922     -0.002016
     20.02235      0.47602      0.64593         0.004041      0.001487     -0.003190
     20.46644      1.42818      2.92837         0.001117      0.000158      0.001700
     20.45827     16.67281      0.87872        -0.001189      0.000620      0.001778
     16.05485     13.50927      4.11053        -0.000773      0.001683      0.002800
     16.05866      4.59196     -0.29742         0.002069     -0.001048      0.002165
      4.32628     17.90201     -0.34371        -0.002764     -0.002304      0.003684
     16.49606     12.55649      1.82779        -0.003243      0.002029     -0.001911
     16.50527      5.54619      1.98321        -0.000755     -0.005126      0.002419
      7.84644     12.83252     -1.67527         0.000833      0.004454     -0.003508
      3.88320     16.94754     -2.62473        -0.001270      0.000399      0.000146
      3.88148      1.14723      6.43678        -0.001254      0.001668      0.004985
      8.28865      4.31243      3.21155        -0.000830     -0.002315     -0.001583
     20.01324     17.62819      3.15915         0.002297     -0.004542      0.000593
      4.32505      0.19596      4.15398        -0.003415      0.000385     -0.005408
      7.84222      5.26598      5.49259         0.001504     -0.003437      0.003666
      8.28920     13.78655      0.60667         0.000560      0.000538      0.000501
     18.99446      1.52620      0.43759         0.000633      0.004968     -0.000776
     19.46322      2.48717      2.65350        -0.000012     -0.001557     -0.000058
     19.45322     15.61543      1.15370         0.000428      0.000400     -0.002516
     17.05732     14.56849      3.83397        -0.000778     -0.002306     -0.000094
     17.06349      3.53418     -0.02338        -0.001200      0.000790     -0.002968
      5.35401     16.85202     -0.13343        -0.001136     -0.003460      0.003203
     17.52305     13.60709      1.61764         0.000021      0.005942     -0.000692
     17.53276      4.49563      2.19185        -0.000255     -0.002969      0.005072
      6.81798     13.88197     -1.88468         0.003262      0.002249     -0.000659
      4.88713     15.88949     -2.34863         0.001333     -0.001592     -0.000899
      4.88496      2.20617      6.16249        -0.000893     -0.003445     -0.000644
      7.28385      3.25447      3.48542         0.001748      0.001404     -0.001242
     18.98630     16.57743      3.36913        -0.000395     -0.003797      0.003824
      5.35293      1.24623      3.94598        -0.000459      0.003921     -0.001531
      6.81516      4.21496      5.70130        -0.000578     -0.005078      0.002373
      7.28511     14.84463      0.33094        -0.001224     -0.000073     -0.000573
     18.27530      1.00026      6.26251         0.003048      0.003751     -0.003408
     19.21643      3.46799      3.60879        -0.002177     -0.003343      0.000758
     19.20447     14.63521      0.19834         0.000139      0.003367     -0.004571
     17.30396     16.10582     -2.22494         0.003434     -0.003025     -0.000643
     17.31223      1.99816      6.03426         0.001608      0.003585     -0.001777
      6.07375     16.82335      1.05563        -0.003138     -0.002879      0.003941
     18.24170     13.63730      0.42796        -0.003639      0.003479     -0.002327
     18.25381      4.46617      3.38012        -0.004385     -0.001992      0.003119
      6.09930     13.35465      3.93995         0.002479      0.005073     -0.002090
      5.13649     14.35246      3.71018        -0.000061      0.004163     -0.003519
      5.13063      3.74292      0.10445         0.001776     -0.002964      0.002395
      7.03583      2.27513      2.52905        -0.001849      0.002597     -0.002076
     18.26583     17.10429     -2.45527         0.003585     -0.001109      0.004473
      6.07275      1.27714      2.75706        -0.002875      0.003645     -0.003065
      6.09316      4.74120     -0.12401         0.004823     -0.000694      0.004387
      7.03672     15.82574      1.28558        -0.000470     -0.003586      0.002946
     21.71270     24.21822     -2.55041         0.001116      0.002717     -0.002175
     21.70602     18.59880      1.70285        -0.000487     -0.001526      0.000506
     14.80881     11.58165      3.28769        -0.001390      0.001743      0.000667
     14.81259      6.51830      0.52790        -0.001352     -0.001299      0.001377
      2.63619     18.87460     -1.80216        -0.000272     -0.002760      0.002599
      9.53568     11.85915     -0.21685         0.000783      0.002630     -0.000390
      2.63798     23.93816      0.95722        -0.001575      0.001886     -0.000127
      9.53408      6.23906      4.03649         0.000932     -0.000589     -0.000780
     18.75039      2.50332      1.43145         0.002422     -0.001284      0.001008
     18.74176     15.59944      2.37643         0.000886      0.000753      0.000829
     17.76824     14.58459      2.61090        -0.002218     -0.002230     -0.001279
     17.77629      3.51799      1.19858        -0.000796      0.000134      0.001341
      5.59882     15.87397     -1.12594        -0.001652      0.000435      0.000554
      6.57309     14.85970     -0.89166         0.001930     -0.001064      0.000324
      5.59746      2.22276      4.94034        -0.001775     -0.001253      0.000401
      6.57144      3.23762      4.70766         0.002156      0.001700      0.001973
      0.38374     21.68295     -3.93221        -0.001015     -0.000334     -0.000876
     23.96281     21.40612     -0.42451         0.001955      0.000998     -0.001797
     11.78779      9.04740      1.90821         0.001119     -0.000394     -0.000520
     12.55750      9.32556     -1.59895        -0.001364     -0.000392     -0.000071
      7.60122      2.30555      1.59816        -0.001891      0.003574     -0.003513
     18.03185     12.87532     -0.32177        -0.003538      0.005616     -0.006022
     18.04558      5.22876      4.12981        -0.002960     -0.007310      0.004248
     18.48425      0.23846      5.51229         0.003972      0.006439     -0.004858
     18.47471     17.86721     -1.70608         0.003210     -0.007760      0.003575
     16.73936     16.07636     -1.29359         0.000631     -0.003909      0.006028
      4.57141     14.38169      2.77899         0.003017      0.003583     -0.002107
      4.56482      3.71307      1.03511         0.001183     -0.003576      0.004498
     19.76935     14.66480     -0.73297        -0.003054      0.003483     -0.001950
      6.30129      5.50366      0.62587         0.002915     -0.007655      0.003908
      6.30869     12.59217      3.19062         0.004122      0.004907     -0.006092
      5.86426     17.58600      1.80486        -0.002981     -0.006405      0.004473
      7.60170     15.79686      2.21683        -0.001548     -0.003117      0.003525
     16.74643      2.02808      5.10357         0.002893      0.003495     -0.002612
     19.78217      3.43833      4.53948        -0.000639     -0.003420      0.005207
      5.86347      0.51573      2.00653        -0.003829      0.006704     -0.005011
     15.15580     11.29646     -1.65876        -0.006853      0.005609      0.003314
      9.18824      7.08066      1.96918         0.005946     -0.005471     -0.003790
     10.75578     11.85525     -2.11317        -0.003850     -0.002164     -0.006555
      1.41603     18.88050      0.09431         0.004589      0.002286      0.005397
      2.98374     23.65118     -3.98983        -0.007214      0.006208      0.003046
     10.75215      6.80033     -1.08003        -0.005174      0.002609      0.004748
     22.93153     24.21148     -4.44757        -0.004599     -0.002678     -0.006561
     21.36071     19.44195     -0.36387         0.005720     -0.005527     -0.004043
      1.41845     23.93436     -0.93949         0.004234     -0.002170     -0.006151
     13.58871     11.57557      1.39142         0.003586     -0.001850     -0.005908
     15.15912      6.80523      5.47478        -0.005646     -0.005935     -0.003648
     21.36573     23.37738     -0.48292         0.006696      0.005835      0.003969
     13.59339      6.52140      2.42498         0.004843      0.002086      0.005610
      9.18816     11.01582      1.84964         0.006573      0.006092      0.003597
      2.98418     19.15913      3.14395        -0.005608     -0.005848     -0.003561
     22.92454     19.15767     -3.41391        -0.005319      0.002231      0.005094
     23.46268     22.87072     -2.89672        -0.001473     -0.000473     -0.003251
     22.95544     22.59243     -1.65520         0.002255      0.001482      0.001384
     23.46012     19.94085      2.04893        -0.003040     -0.000342     -0.000548
     13.05798     10.23508      2.94261        -0.000228      0.000122     -0.004212
     13.56613      8.14168     -0.36677        -0.000755     -0.003529      0.000155
      1.39120     20.49793     -2.69919        -0.001335     -0.002331     -0.001263
     13.56589      9.95617      4.18367        -0.001850      0.002279      0.001796
     13.05927      7.86137      0.87445         0.003647     -0.001630      0.001600
     10.77924     10.23332      0.67757         0.000217      0.003010      0.001445
      0.88371     20.21918     -1.45791         0.001914     -0.000701      0.001722
      1.39379     22.31272      1.85140        -0.000657      0.002146      0.003043
     10.77982      7.86253      3.14071        -0.000085     -0.003389     -0.001426
     22.95337     20.22149      0.80768         0.000912     -0.004580      0.001601
      0.88645     22.59286      0.61045         0.000647      0.001143     -0.005817
     11.28661      7.58327      4.38214        -0.001885     -0.000469      0.002541
     11.28705     10.51336     -0.56333        -0.001553      0.000718     -0.004235
     20.71007      0.49186      1.89074         0.001535      0.002033     -0.001995
     20.70291     17.60940      1.91568         0.000107     -0.002034      0.000721
     15.80976     12.57281      3.07348        -0.001379      0.001467     -0.004104
     15.81519      5.52831      0.74005        -0.001896     -0.002112      0.000201
      3.63818     17.88428     -1.58808        -0.001217     -0.002246      0.000753
      8.53374     12.84973     -0.43032         0.002998      0.001081     -0.001537
      3.63766      0.21128      5.39894        -0.001383      0.001472     -0.003345
      8.53198      5.24861      4.24907         0.002034     -0.000326      0.002634
     20.27804     23.79242      2.15124         0.002425      0.006811     -0.002908
     21.06042      1.35443      4.00189        -0.000889     -0.000787      0.000540
     21.05336     16.74469     -0.19425        -0.000542      0.001387     -0.003446
     15.46172     13.99174     -1.82854         0.000484     -0.000483     -0.000064
     15.46398      4.10841      5.64369         0.000496      0.001547     -0.002322
      4.07391     18.74909      0.50888        -0.002936     -0.006476      0.005231
     16.24289     11.71038      0.97441        -0.001878      0.004775     -0.002860
     16.25482      6.39361      2.83597        -0.002673     -0.003860      0.004908
      8.10113     11.43061      4.48471         0.002314      0.004826     -0.002869
      3.29058     16.46390      3.31515         0.000228      0.000082     -0.000098
      3.28622      1.62962      0.49655         0.002967     -0.000850     -0.001945
      8.88438      4.38510      2.13894        -0.001829      0.001688     -0.000820
     20.26290     19.03258     -3.00255         0.003224     -0.004324      0.006185
      4.07372     24.06902     -1.35477        -0.001891      0.008137     -0.000940
      8.09148      6.66965     -0.66822         0.002428     -0.004921      0.002991
      8.88339     13.71394      1.68011         0.000152     -0.000955      0.001823
 -----------------------------------------------------------------------------------
    total drift:                                0.001866     -0.039495     -0.055414


--------------------------------------------------------------------------------------------------------



  FREE ENERGIE OF THE ION-ELECTRON SYSTEM (eV)
  ---------------------------------------------------
  free  energy   TOTEN  =     -1161.76313264 eV

  energy  without entropy=    -1161.76313264  energy(sigma->0) =    -1161.76313264
 


--------------------------------------------------------------------------------------------------------


    POTLOK:  cpu time    0.1855: real time    0.1856


--------------------------------------------------------------------------------------------------------


 Quasi-Newton relaxation of ions (Broydens 2nd method)
  g(Force)  = 0.210E-03   g(Stress)= 0.117E-04

 Reset! Starting new Quasi-Newton update for ions 


--------------------------------------------------------------------------------------------------------


  
 reached required accuracy - stopping structural energy minimisation
 writing wavefunctions
     LOOP+:  cpu time  444.6372: real time  452.0903
    4ORBIT:  cpu time    0.0000: real time    0.0000

 total amount of memory used by VASP MPI-rank0   112764. kBytes
=======================================================================

   base      :      30000. kBytes
   nonlr-proj:       6279. kBytes
   fftplans  :      12448. kBytes
   grid      :      21268. kBytes
   one-center:        606. kBytes
   wavefun   :      42163. kBytes
 
  
  
 General timing and accounting informations for this job:
 ========================================================
  
                  Total CPU time used (sec):      542.720
                            User time (sec):      484.787
                          System time (sec):       57.933
                         Elapsed time (sec):      552.219
  
                   Maximum memory used (kb):      990296.
                   Average memory used (kb):           0.
  
                          Minor page faults:       243155
                          Major page faults:            2
                 Voluntary context switches:         9821
