       N       E                     dE             d eps       ncg     rms          rms(c)
RMM:   1     0.792253626748E+04    0.79225E+04   -0.22948E+05  2400   0.126E+03
RMM:   2     0.297673727588E+04   -0.49458E+04   -0.67576E+04  2400   0.283E+02
RMM:   3     0.858788451901E+03   -0.21179E+04   -0.28623E+04  2400   0.181E+02
RMM:   4    -0.451862991815E+03   -0.13107E+04   -0.13051E+04  2400   0.149E+02
RMM:   5    -0.974874239229E+03   -0.52301E+03   -0.46512E+03  2400   0.943E+01
RMM:   6    -0.115073410944E+04   -0.17586E+03   -0.15386E+03  2400   0.577E+01
RMM:   7    -0.120640086366E+04   -0.55667E+02   -0.51523E+02  2400   0.330E+01
RMM:   8    -0.122699315360E+04   -0.20592E+02   -0.18133E+02  2400   0.202E+01
RMM:   9    -0.123881925912E+04   -0.11826E+02   -0.11320E+02  5748   0.119E+01
RMM:  10    -0.123954075555E+04   -0.72150E+00   -0.70814E+00  6372   0.351E+00
RMM:  11    -0.123958926642E+04   -0.48511E-01   -0.39662E-01  5803   0.706E-01
RMM:  12    -0.123959143336E+04   -0.21669E-02   -0.21437E-02  6335   0.189E-01    0.578E+01
RMM:  13    -0.116781682620E+04    0.71775E+02   -0.16044E+02  4800   0.164E+01    0.321E+01
RMM:  14    -0.115290078188E+04    0.14916E+02   -0.43823E+01  4800   0.852E+00    0.149E+01
RMM:  15    -0.115133085256E+04    0.15699E+01   -0.10352E+01  4800   0.443E+00    0.497E+00
RMM:  16    -0.115110168136E+04    0.22917E+00   -0.81277E-01  4920   0.140E+00    0.141E+00
RMM:  17    -0.115107154465E+04    0.30137E-01   -0.16452E-01  4829   0.672E-01    0.495E-01
RMM:  18    -0.115105847250E+04    0.13072E-01   -0.60077E-02  4819   0.307E-01    0.300E-01
RMM:  19    -0.115105529847E+04    0.31740E-02   -0.14129E-02  4813   0.170E-01    0.153E-01
RMM:  20    -0.115106185253E+04   -0.65541E-02   -0.14913E-02  4801   0.136E-01    0.887E-02
RMM:  21    -0.115106491115E+04   -0.30586E-02   -0.41629E-03  4926   0.700E-02    0.713E-02
RMM:  22    -0.115106962570E+04   -0.47146E-02   -0.16512E-03  4800   0.476E-02    0.348E-02
RMM:  23    -0.115107163184E+04   -0.20061E-02   -0.37533E-04  4838   0.236E-02    0.248E-02
RMM:  24    -0.115107393384E+04   -0.23020E-02   -0.18701E-04  4800   0.159E-02    0.141E-02
RMM:  25    -0.115107578058E+04   -0.18467E-02   -0.18990E-04  4752   0.137E-02    0.929E-03
RMM:  26    -0.115107645393E+04   -0.67335E-03   -0.49821E-05  4420   0.682E-03    0.469E-03
RMM:  27    -0.115107672181E+04   -0.26788E-03   -0.17470E-05  4179   0.368E-03    0.228E-03
RMM:  28    -0.115107683135E+04   -0.10955E-03   -0.63611E-06  3534   0.229E-03    0.119E-03
RMM:  29    -0.115107687713E+04   -0.45778E-04   -0.27700E-06  3192   0.142E-03    0.692E-04
RMM:  30    -0.115107689448E+04   -0.17355E-04   -0.14625E-06  2727   0.107E-03    0.610E-04
RMM:  31    -0.115107689844E+04   -0.39557E-05   -0.50575E-07  2525   0.823E-04    0.448E-04
RMM:  32    -0.115107690031E+04   -0.18716E-05   -0.27427E-07  2383   0.641E-04    0.389E-04
RMM:  33    -0.115107690102E+04   -0.70444E-06   -0.13034E-07  2057   0.479E-04
   1 F= -.11619230E+04 E0= -.11619230E+04  d E =-.116192E+04
