 vasp.6.0.8 29Jun18 (build Mar 14 2019 11:44:20) complex                        
  
 executed on             LinuxIFC date 2021.01.12  14:16:47
 running   64 mpi-ranks, with    1 threads/rank
 distrk:  each k-point on   64 cores,    1 groups
 distr:  one band on NCORES_PER_BAND=   4 cores,   16 groups


--------------------------------------------------------------------------------------------------------


 INCAR:
 POTCAR:    PAW_PBE C 08Apr2002                   
 POTCAR:    PAW_PBE Zn 06Sep2000                  
 POTCAR:    PAW_PBE H 15Jun2001                   
 POTCAR:    PAW_PBE N 08Apr2002                   
 POTCAR:    PAW_PBE O 08Apr2002                   
 POTCAR:    PAW_PBE C 08Apr2002                   
   VRHFIN =C: s2p2                                                              
   LEXCH  = PE                                                                  
   EATOM  =   147.1560 eV,   10.8157 Ry                                         
                                                                                
   TITEL  = PAW_PBE C 08Apr2002                                                 
   LULTRA =        F    use ultrasoft PP ?                                      
   IUNSCR =        1    unscreen: 0-lin 1-nonlin 2-no                           
   RPACOR =    1.200    partial core radius                                     
   POMASS =   12.011; ZVAL   =    4.000    mass and valenz                      
   RCORE  =    1.500    outmost cutoff radius                                   
   RWIGS  =    1.630; RWIGS  =    0.863    wigner-seitz radius (au A)           
   ENMAX  =  400.000; ENMIN  =  300.000 eV                                      
   ICORE  =        2    local potential                                         
   LCOR   =        T    correct aug charges                                     
   LPAW   =        T    paw PP                                                  
   EAUG   =  644.873                                                            
   DEXC   =    0.000                                                            
   RMAX   =    1.529    core radius for proj-oper                               
   RAUG   =    1.300    factor for augmentation sphere                          
   RDEP   =    1.501    radius for radial grids                                 
   RDEPT  =    1.300    core radius for aug-charge                              
                                                                                
   Atomic configuration                                                         
    4 entries                                                                   
     n  l   j            E        occ.                                          
     1  0  0.50      -273.3789   2.0000                                         
     2  0  0.50       -13.7508   2.0000                                         
     2  1  0.50        -5.2854   2.0000                                         
     3  2  1.50        -5.4423   0.0000                                         
   Description                                                                  
     l       E           TYP  RCUT    TYP  RCUT                                 
     0    -13.7508458     23  1.200                                             
     0     -8.2022199     23  1.200                                             
     1     -5.2854383     23  1.500                                             
     1     34.0145650     23  1.500                                             
     2     -5.4423304      7  1.500                                             
  local pseudopotential read in
  partial core-charges read in
  partial kinetic energy density read in
  atomic valenz-charges read in
  non local Contribution for L=           0  read in
    real space projection operators read in
  non local Contribution for L=           0  read in
    real space projection operators read in
  non local Contribution for L=           1  read in
    real space projection operators read in
  non local Contribution for L=           1  read in
    real space projection operators read in
    PAW grid and wavefunctions read in
 
   number of l-projection  operators is LMAX  =           4
   number of lm-projection operators is LMMAX =           8
 
 POTCAR:    PAW_PBE Zn 06Sep2000                  
   VRHFIN =Zn: d10 p2                                                           
   LEXCH  = PE                                                                  
   EATOM  =  1748.8345 eV,  128.5357 Ry                                         
                                                                                
   TITEL  = PAW_PBE Zn 06Sep2000                                                
   LULTRA =        F    use ultrasoft PP ?                                      
   IUNSCR =        1    unscreen: 0-lin 1-nonlin 2-no                           
   RPACOR =    2.000    partial core radius                                     
   POMASS =   65.390; ZVAL   =   12.000    mass and valenz                      
   RCORE  =    2.300    outmost cutoff radius                                   
   RWIGS  =    2.400; RWIGS  =    1.270    wigner-seitz radius (au A)           
   ENMAX  =  276.723; ENMIN  =  207.542 eV                                      
   RCLOC  =    1.828    cutoff for local pot                                    
   LCOR   =        T    correct aug charges                                     
   LPAW   =        T    paw PP                                                  
   EAUG   =  575.892                                                            
   DEXC   =    0.000                                                            
   RMAX   =    2.347    core radius for proj-oper                               
   RAUG   =    1.300    factor for augmentation sphere                          
   RDEP   =    2.324    radius for radial grids                                 
   RDEPT  =    1.788    core radius for aug-charge                              
                                                                                
   Atomic configuration                                                         
    9 entries                                                                   
     n  l   j            E        occ.                                          
     1  0  0.50     -9524.6913   2.0000                                         
     2  0  0.50     -1158.1882   2.0000                                         
     2  1  1.50     -1003.8506   6.0000                                         
     3  0  0.50      -129.2194   2.0000                                         
     3  1  1.50       -83.3890   6.0000                                         
     3  2  2.50       -10.1410  10.0000                                         
     4  0  0.50        -5.9785   2.0000                                         
     4  1  0.50        -4.0817   0.0000                                         
     4  3  2.50        -1.3606   0.0000                                         
   Description                                                                  
     l       E           TYP  RCUT    TYP  RCUT                                 
     2    -10.1410010     23  2.300                                             
     2    -11.5015836     23  2.300                                             
     0     -5.9785163     23  2.300                                             
     0      1.1858015     23  2.300                                             
     1     -2.7211652     23  2.300                                             
     1     13.2444212     23  2.300                                             
  local pseudopotential read in
  partial core-charges read in
  partial kinetic energy density read in
  atomic valenz-charges read in
  non local Contribution for L=           2  read in
    real space projection operators read in
  non local Contribution for L=           2  read in
    real space projection operators read in
  non local Contribution for L=           0  read in
    real space projection operators read in
  non local Contribution for L=           0  read in
    real space projection operators read in
  non local Contribution for L=           1  read in
    real space projection operators read in
  non local Contribution for L=           1  read in
    real space projection operators read in
    PAW grid and wavefunctions read in
 
   number of l-projection  operators is LMAX  =           6
   number of lm-projection operators is LMMAX =          18
 
 POTCAR:    PAW_PBE H 15Jun2001                   
   VRHFIN =H: ultrasoft test                                                    
   LEXCH  = PE                                                                  
   EATOM  =    12.4884 eV,    0.9179 Ry                                         
                                                                                
   TITEL  = PAW_PBE H 15Jun2001                                                 
   LULTRA =        F    use ultrasoft PP ?                                      
   IUNSCR =        0    unscreen: 0-lin 1-nonlin 2-no                           
   RPACOR =    0.000    partial core radius                                     
   POMASS =    1.000; ZVAL   =    1.000    mass and valenz                      
   RCORE  =    1.100    outmost cutoff radius                                   
   RWIGS  =    0.700; RWIGS  =    0.370    wigner-seitz radius (au A)           
   ENMAX  =  250.000; ENMIN  =  200.000 eV                                      
   RCLOC  =    0.701    cutoff for local pot                                    
   LCOR   =        T    correct aug charges                                     
   LPAW   =        T    paw PP                                                  
   EAUG   =  400.000                                                            
   RMAX   =    1.123    core radius for proj-oper                               
   RAUG   =    1.200    factor for augmentation sphere                          
   RDEP   =    1.112    radius for radial grids                                 
   RDEPT  =    0.926    core radius for aug-charge                              
                                                                                
   Atomic configuration                                                         
    2 entries                                                                   
     n  l   j            E        occ.                                          
     1  0  0.50        -6.4927   1.0000                                         
     2  1  0.50        -3.4015   0.0000                                         
   Description                                                                  
     l       E           TYP  RCUT    TYP  RCUT                                 
     0     -6.4927494     23  1.100                                             
     0      6.8029130     23  1.100                                             
     1     -4.0817478     23  1.100                                             
  local pseudopotential read in
  atomic valenz-charges read in
  non local Contribution for L=           0  read in
    real space projection operators read in
  non local Contribution for L=           0  read in
    real space projection operators read in
  non local Contribution for L=           1  read in
    real space projection operators read in
    PAW grid and wavefunctions read in
 
   number of l-projection  operators is LMAX  =           3
   number of lm-projection operators is LMMAX =           5
 
 POTCAR:    PAW_PBE N 08Apr2002                   
   VRHFIN =N: s2p3                                                              
   LEXCH  = PE                                                                  
   EATOM  =   264.5486 eV,   19.4438 Ry                                         
                                                                                
   TITEL  = PAW_PBE N 08Apr2002                                                 
   LULTRA =        F    use ultrasoft PP ?                                      
   IUNSCR =        1    unscreen: 0-lin 1-nonlin 2-no                           
   RPACOR =    1.200    partial core radius                                     
   POMASS =   14.001; ZVAL   =    5.000    mass and valenz                      
   RCORE  =    1.500    outmost cutoff radius                                   
   RWIGS  =    1.400; RWIGS  =    0.741    wigner-seitz radius (au A)           
   ENMAX  =  400.000; ENMIN  =  300.000 eV                                      
   ICORE  =        2    local potential                                         
   LCOR   =        T    correct aug charges                                     
   LPAW   =        T    paw PP                                                  
   EAUG   =  627.112                                                            
   DEXC   =    0.000                                                            
   RMAX   =    1.529    core radius for proj-oper                               
   RAUG   =    1.300    factor for augmentation sphere                          
   RDEP   =    1.514    radius for radial grids                                 
   RDEPT  =    1.338    core radius for aug-charge                              
                                                                                
   Atomic configuration                                                         
    4 entries                                                                   
     n  l   j            E        occ.                                          
     1  0  0.50      -384.7179   2.0000                                         
     2  0  0.50       -18.5828   2.0000                                         
     2  1  0.50        -7.0898   3.0000                                         
     3  2  1.50        -6.8029   0.0000                                         
   Description                                                                  
     l       E           TYP  RCUT    TYP  RCUT                                 
     0    -18.5828119     23  1.200                                             
     0    -13.5018863     23  1.200                                             
     1     -7.0897853     23  1.500                                             
     1      9.5240782     23  1.500                                             
     2     -6.8029130      7  1.500                                             
  local pseudopotential read in
  partial core-charges read in
  partial kinetic energy density read in
  atomic valenz-charges read in
  non local Contribution for L=           0  read in
    real space projection operators read in
  non local Contribution for L=           0  read in
    real space projection operators read in
  non local Contribution for L=           1  read in
    real space projection operators read in
  non local Contribution for L=           1  read in
    real space projection operators read in
    PAW grid and wavefunctions read in
 
   number of l-projection  operators is LMAX  =           4
   number of lm-projection operators is LMMAX =           8
 
 POTCAR:    PAW_PBE O 08Apr2002                   
   VRHFIN =O: s2p4                                                              
   LEXCH  = PE                                                                  
   EATOM  =   432.3788 eV,   31.7789 Ry                                         
                                                                                
   TITEL  = PAW_PBE O 08Apr2002                                                 
   LULTRA =        F    use ultrasoft PP ?                                      
   IUNSCR =        1    unscreen: 0-lin 1-nonlin 2-no                           
   RPACOR =    1.200    partial core radius                                     
   POMASS =   16.000; ZVAL   =    6.000    mass and valenz                      
   RCORE  =    1.520    outmost cutoff radius                                   
   RWIGS  =    1.550; RWIGS  =    0.820    wigner-seitz radius (au A)           
   ENMAX  =  400.000; ENMIN  =  300.000 eV                                      
   ICORE  =        2    local potential                                         
   LCOR   =        T    correct aug charges                                     
   LPAW   =        T    paw PP                                                  
   EAUG   =  605.392                                                            
   DEXC   =    0.000                                                            
   RMAX   =    1.553    core radius for proj-oper                               
   RAUG   =    1.300    factor for augmentation sphere                          
   RDEP   =    1.550    radius for radial grids                                 
   RDEPT  =    1.329    core radius for aug-charge                              
                                                                                
   Atomic configuration                                                         
    4 entries                                                                   
     n  l   j            E        occ.                                          
     1  0  0.50      -514.6923   2.0000                                         
     2  0  0.50       -23.9615   2.0000                                         
     2  1  0.50        -9.0305   4.0000                                         
     3  2  1.50        -9.5241   0.0000                                         
   Description                                                                  
     l       E           TYP  RCUT    TYP  RCUT                                 
     0    -23.9615318     23  1.200                                             
     0     -9.5240782     23  1.200                                             
     1     -9.0304911     23  1.520                                             
     1      8.1634956     23  1.520                                             
     2     -9.5240782      7  1.500                                             
  local pseudopotential read in
  partial core-charges read in
  partial kinetic energy density read in
  kinetic energy density of atom read in
  atomic valenz-charges read in
  non local Contribution for L=           0  read in
    real space projection operators read in
  non local Contribution for L=           0  read in
    real space projection operators read in
  non local Contribution for L=           1  read in
    real space projection operators read in
  non local Contribution for L=           1  read in
    real space projection operators read in
    PAW grid and wavefunctions read in
 
   number of l-projection  operators is LMAX  =           4
   number of lm-projection operators is LMMAX =           8
 
 Optimization of the real space projectors (new method)

 maximal supplied QI-value         = 25.13
 optimisation between [QCUT,QGAM] = [ 12.32, 24.88] = [ 42.47,173.37] Ry 
 Optimized for a Real-space Cutoff    1.06 Angstroem

   l    n(q)    QCUT    max X(q) W(low)/X(q) W(high)/X(q)  e(spline) 
   0      8    12.315   115.676    0.34E-03    0.18E-03    0.23E-06
   0      8    12.315    87.132    0.34E-03    0.18E-03    0.22E-06
   1      7    12.315     4.429    0.45E-03    0.12E-03    0.18E-06
   1      7    12.315     2.733    0.35E-03    0.97E-04    0.15E-06
 Optimization of the real space projectors (new method)

 maximal supplied QI-value         = 16.25
 optimisation between [QCUT,QGAM] = [ 12.51, 25.03] = [ 43.85,175.40] Ry 
 Optimized for a Real-space Cutoff    1.31 Angstroem

   l    n(q)    QCUT    max X(q) W(low)/X(q) W(high)/X(q)  e(spline) 
   2      9    12.514    46.356    0.36E-03    0.54E-03    0.48E-06
   2      9    12.514    41.843    0.37E-03    0.56E-03    0.49E-06
   0     10    12.514    48.958    0.13E-03    0.28E-03    0.23E-06
   0     10    12.514    32.776    0.12E-03    0.26E-03    0.22E-06
   1      9    12.514    17.787    0.44E-03    0.44E-04    0.36E-06
   1      9    12.514    14.435    0.39E-03    0.39E-04    0.32E-06
 Optimization of the real space projectors (new method)

 maximal supplied QI-value         = 34.20
 optimisation between [QCUT,QGAM] = [ 12.31, 24.97] = [ 42.46,174.58] Ry 
 Optimized for a Real-space Cutoff    1.00 Angstroem

   l    n(q)    QCUT    max X(q) W(low)/X(q) W(high)/X(q)  e(spline) 
   0      7    12.313    19.460    0.14E-03    0.42E-03    0.16E-06
   0      7    12.313    12.209    0.12E-03    0.40E-03    0.16E-06
   1      7    12.313     4.655    0.33E-03    0.59E-03    0.89E-07
 Optimization of the real space projectors (new method)

 maximal supplied QI-value         = 25.13
 optimisation between [QCUT,QGAM] = [ 12.32, 24.88] = [ 42.47,173.37] Ry 
 Optimized for a Real-space Cutoff    1.20 Angstroem

   l    n(q)    QCUT    max X(q) W(low)/X(q) W(high)/X(q)  e(spline) 
   0      9    12.315    79.467    0.14E-03    0.22E-04    0.37E-06
   0      9    12.315    66.151    0.14E-03    0.23E-04    0.36E-06
   1      8    12.315    22.077    0.30E-03    0.54E-03    0.45E-06
   1      8    12.315    15.894    0.30E-03    0.55E-03    0.45E-06
 Optimization of the real space projectors (new method)

 maximal supplied QI-value         = 24.76
 optimisation between [QCUT,QGAM] = [ 12.38, 25.00] = [ 42.90,175.06] Ry 
 Optimized for a Real-space Cutoff    1.13 Angstroem

   l    n(q)    QCUT    max X(q) W(low)/X(q) W(high)/X(q)  e(spline) 
   0      8    12.378    20.381    0.16E-03    0.54E-05    0.27E-06
   0      8    12.378    15.268    0.17E-03    0.61E-05    0.29E-06
   1      8    12.378     5.964    0.38E-03    0.23E-03    0.28E-06
   1      8    12.378     5.382    0.33E-03    0.20E-03    0.25E-06
  PAW_PBE C 08Apr2002                   :
 energy of atom  1       EATOM= -147.1560
 kinetic energy error for atom=    0.0057 (will be added to EATOM!!)
  PAW_PBE Zn 06Sep2000                  :
 energy of atom  2       EATOM=-1748.8345
 kinetic energy error for atom=    0.0020 (will be added to EATOM!!)
  PAW_PBE H 15Jun2001                   :
 energy of atom  3       EATOM=  -12.4884
 kinetic energy error for atom=    0.0004 (will be added to EATOM!!)
  PAW_PBE N 08Apr2002                   :
 energy of atom  4       EATOM= -264.5486
 kinetic energy error for atom=    0.0103 (will be added to EATOM!!)
  PAW_PBE O 08Apr2002                   :
 energy of atom  5       EATOM= -432.3788
 kinetic energy error for atom=    0.0168 (will be added to EATOM!!)
 
 
 POSCAR: Zn_H
  positions in direct lattice
  velocities in cartesian coordinates
 exchange correlation table for  LEXCH =        8
   RHO(1)=    0.500       N(1)  =     2000
   RHO(2)=  100.500       N(2)  =     4000
 


--------------------------------------------------------------------------------------------------------


 ion  position               nearest neighbor table
   1  0.938  0.965  0.153- 107 1.08 117 1.34  65 1.40
   2  0.872  0.952  0.420- 112 1.09 118 1.35  65 1.40
   3  0.939  0.791  0.893- 116 1.08 119 1.34  66 1.40
   4  0.561  0.465  0.652- 110 1.09 120 1.34  67 1.40
   5  0.627  0.303  0.124- 111 1.09 121 1.35  68 1.40
   6  0.128  0.804  0.125- 115 1.09 122 1.35  69 1.40
   7  0.628  0.452  0.920- 101 1.09 123 1.35  67 1.40
   8  0.561  0.291  0.392- 113 1.08 124 1.34  68 1.40
   9  0.372  0.453  0.420- 114 1.09 125 1.35  70 1.40
  10  0.062  0.791  0.392- 104 1.08 126 1.34  69 1.40
  11  0.128  0.953  0.920- 105 1.09 127 1.35  71 1.40
  12  0.372  0.303  0.625- 102 1.09 128 1.35  72 1.40
  13  0.872  0.803  0.625- 108 1.09 129 1.35  66 1.40
  14  0.061  0.965  0.652- 109 1.08 130 1.34  71 1.40
  15  0.438  0.291  0.892- 106 1.09 131 1.34  72 1.40
  16  0.439  0.465  0.152- 103 1.08 132 1.34  70 1.40
  17  0.801  0.021  0.096- 141 1.23 133 1.42  33 1.48
  18  0.846  0.064  0.477- 142 1.23 133 1.42  34 1.48
  19  0.847  0.691  0.570- 143 1.23 134 1.41  35 1.48
  20  0.653  0.564  0.977- 144 1.23 135 1.42  36 1.48
  21  0.653  0.191  0.069- 145 1.23 136 1.41  37 1.48
  22  0.199  0.735  0.449- 146 1.23 137 1.42  38 1.48
  23  0.698  0.521  0.596- 147 1.23 135 1.42  39 1.48
  24  0.698  0.234  0.450- 148 1.23 136 1.42  40 1.48
  25  0.302  0.521  0.095- 149 1.23 138 1.42  41 1.48
  26  0.154  0.691  0.069- 150 1.23 137 1.41  42 1.48
  27  0.153  0.065  0.976- 151 1.23 139 1.42  43 1.48
  28  0.346  0.191  0.569- 152 1.23 140 1.41  44 1.48
  29  0.802  0.734  0.950- 153 1.23 134 1.42  45 1.48
  30  0.198  0.021  0.595- 154 1.23 139 1.42  46 1.48
  31  0.301  0.235  0.949- 155 1.23 140 1.42  47 1.48
  32  0.347  0.565  0.476- 156 1.23 138 1.42  48 1.48
  33  0.763  0.065  0.094-  49 1.39  73 1.42  17 1.48
  34  0.808  0.108  0.465-  50 1.39  73 1.42  18 1.48
  35  0.809  0.648  0.581-  51 1.39  74 1.42  19 1.48
  36  0.691  0.608  0.965-  52 1.39  75 1.42  20 1.48
  37  0.690  0.148  0.081-  53 1.39  76 1.42  21 1.48
  38  0.238  0.691  0.451-  54 1.39  77 1.42  22 1.48
  39  0.737  0.565  0.594-  55 1.39  75 1.42  23 1.48
  40  0.736  0.191  0.452-  56 1.39  76 1.42  24 1.48
  41  0.263  0.565  0.094-  57 1.39  78 1.42  25 1.48
  42  0.191  0.648  0.080-  58 1.39  77 1.42  26 1.48
  43  0.190  0.108  0.964-  59 1.39  79 1.42  27 1.48
  44  0.308  0.148  0.580-  60 1.39  80 1.42  28 1.48
  45  0.763  0.691  0.952-  61 1.39  74 1.42  29 1.48
  46  0.236  0.065  0.593-  62 1.39  79 1.42  30 1.48
  47  0.262  0.191  0.951-  63 1.39  80 1.42  31 1.48
  48  0.309  0.608  0.464-  64 1.39  78 1.42  32 1.48
  49  0.722  0.065  0.912-  88 1.09  33 1.39  53 1.40
  50  0.813  0.150  0.641-  99 1.09  34 1.39  56 1.40
  51  0.814  0.606  0.405-  93 1.09  35 1.39  55 1.40
  52  0.687  0.650  0.141-  90 1.09  36 1.39  61 1.40
  53  0.686  0.106  0.905-  98 1.09  37 1.39  49 1.40
  54  0.278  0.691  0.633-  96 1.09  38 1.39  64 1.40
  55  0.778  0.565  0.412-  86 1.09  39 1.39  51 1.40
  56  0.777  0.191  0.634-  87 1.09  40 1.39  50 1.40
  57  0.223  0.565  0.911-  95 1.09  41 1.39  58 1.40
  58  0.187  0.606  0.905-  91 1.09  42 1.39  57 1.40
  59  0.186  0.150  0.140-  92 1.09  43 1.39  63 1.40
  60  0.313  0.106  0.404-  85 1.09  44 1.39  62 1.40
  61  0.723  0.691  0.134-  89 1.09  45 1.39  52 1.40
  62  0.277  0.065  0.411- 100 1.09  46 1.39  60 1.40
  63  0.222  0.191  0.133-  94 1.09  47 1.39  59 1.40
  64  0.314  0.650  0.640-  97 1.09  48 1.39  54 1.40
  65  0.881  0.983  0.289-   1 1.40   2 1.40 133 1.42
  66  0.881  0.773  0.757-   3 1.40  13 1.40 134 1.42
  67  0.619  0.483  0.789-   4 1.40   7 1.40 135 1.42
  68  0.618  0.273  0.256-   8 1.40   5 1.40 136 1.42
  69  0.119  0.773  0.256-  10 1.40   6 1.40 137 1.42
  70  0.381  0.483  0.289-  16 1.40   9 1.40 138 1.42
  71  0.119  0.983  0.789-  14 1.40  11 1.40 139 1.42
  72  0.381  0.273  0.756-  15 1.40  12 1.40 140 1.42
  73  0.768  0.107  0.276-  33 1.42  34 1.42  76 1.43
  74  0.768  0.649  0.770-  45 1.42  35 1.42  75 1.43
  75  0.732  0.607  0.777-  39 1.42  36 1.42  74 1.43
  76  0.731  0.149  0.270-  40 1.42  37 1.42  73 1.43
  77  0.232  0.649  0.269-  38 1.42  42 1.42  78 1.43
  78  0.269  0.607  0.276-  41 1.42  48 1.42  77 1.43
  79  0.231  0.107  0.775-  46 1.42  43 1.42  80 1.43
  80  0.268  0.149  0.769-  47 1.42  44 1.42  79 1.43
  81  0.033  0.878  0.022- 127 1.97 122 1.97 119 2.03 117 2.03
  82  0.967  0.878  0.522- 118 1.97 129 1.97 126 2.03 130 2.03
  83  0.467  0.378  0.522- 125 1.97 128 1.97 124 2.03 120 2.03
  84  0.533  0.378  0.022- 123 1.97 121 1.97 131 2.03 132 2.03
  85  0.345  0.107  0.262-  60 1.09
  86  0.781  0.532  0.274-  55 1.09
  87  0.780  0.224  0.772-  56 1.09
  88  0.719  0.032  0.774-  49 1.09
  89  0.720  0.724  0.272-  61 1.09
  90  0.655  0.649  0.284-  52 1.09
  91  0.155  0.607  0.762-  58 1.09
  92  0.154  0.150  0.283-  59 1.09
  93  0.846  0.606  0.263-  51 1.09
  94  0.219  0.224  0.271-  63 1.09
  95  0.220  0.532  0.774-  57 1.09
  96  0.281  0.724  0.771-  54 1.09
  97  0.346  0.650  0.783-  64 1.09
  98  0.654  0.106  0.762-  53 1.09
  99  0.845  0.149  0.784-  50 1.09
 100  0.280  0.032  0.273-  62 1.09
 101  0.665  0.454  0.054-   7 1.09
 102  0.335  0.302  0.491-  12 1.09
 103  0.463  0.478  0.025-  16 1.08
 104  0.038  0.778  0.519-  10 1.08
 105  0.164  0.955  0.054-  11 1.09
 106  0.462  0.278  0.019-  15 1.09
 107  0.962  0.978  0.025-   1 1.08
 108  0.835  0.801  0.491-  13 1.09
 109  0.037  0.978  0.525-  14 1.08
 110  0.537  0.478  0.525-   4 1.09
 111  0.664  0.301  0.991-   5 1.09
 112  0.835  0.954  0.554-   2 1.09
 113  0.537  0.278  0.519-   8 1.08
 114  0.335  0.454  0.554-   9 1.09
 115  0.165  0.802  0.992-   6 1.09
 116  0.963  0.778  0.020-   3 1.08
 117  0.963  0.926  0.199-   1 1.34 118 1.37  81 2.03
 118  0.921  0.918  0.362-   2 1.35 117 1.37  82 1.97
 119  0.963  0.830  0.845-   3 1.34 129 1.37  81 2.03
 120  0.537  0.426  0.699-   4 1.34 123 1.37  83 2.03
 121  0.578  0.337  0.182-   5 1.35 124 1.37  84 1.97
 122  0.078  0.838  0.183-   6 1.35 126 1.37  81 1.97
 123  0.578  0.418  0.862-   7 1.35 120 1.37  84 1.97
 124  0.537  0.330  0.345-   8 1.34 121 1.37  83 2.03
 125  0.422  0.418  0.362-   9 1.35 132 1.37  83 1.97
 126  0.037  0.830  0.345-  10 1.34 122 1.37  82 2.03
 127  0.078  0.918  0.862-  11 1.35 130 1.37  81 1.97
 128  0.421  0.338  0.682-  12 1.35 131 1.37  83 1.97
 129  0.922  0.837  0.682-  13 1.35 119 1.37  82 1.97
 130  0.037  0.926  0.699-  14 1.34 127 1.37  82 2.03
 131  0.463  0.330  0.845-  15 1.34 128 1.37  84 2.03
 132  0.463  0.426  0.199-  16 1.34 125 1.37  84 2.03
 133  0.841  0.024  0.289-  18 1.42  17 1.42  65 1.42
 134  0.841  0.732  0.757-  19 1.41  29 1.42  66 1.42
 135  0.659  0.524  0.789-  20 1.42  23 1.42  67 1.42
 136  0.658  0.232  0.257-  21 1.41  24 1.42  68 1.42
 137  0.159  0.732  0.256-  26 1.41  22 1.42  69 1.42
 138  0.341  0.524  0.288-  32 1.42  25 1.42  70 1.42
 139  0.158  0.024  0.788-  27 1.42  30 1.42  71 1.42
 140  0.341  0.232  0.756-  28 1.41  31 1.42  72 1.42
 141  0.800  0.984  0.939-  17 1.23
 142  0.881  0.063  0.639-  18 1.23
 143  0.882  0.692  0.407-  19 1.23
 144  0.619  0.563  0.139-  20 1.23
 145  0.618  0.192  0.907-  21 1.23
 146  0.201  0.772  0.605-  22 1.23
 147  0.700  0.484  0.439-  23 1.23
 148  0.700  0.271  0.606-  24 1.23
 149  0.300  0.484  0.939-  25 1.23
 150  0.119  0.692  0.907-  26 1.23
 151  0.118  0.064  0.138-  27 1.23
 152  0.381  0.192  0.407-  28 1.23
 153  0.800  0.771  0.106-  29 1.23
 154  0.200  0.984  0.439-  30 1.23
 155  0.299  0.272  0.105-  31 1.23
 156  0.382  0.564  0.638-  32 1.23
 

IMPORTANT INFORMATION: All symmetrisations will be switched off!
NOSYMM: (Re-)initialisation of all symmetry stuff for point group C_1.


----------------------------------------------------------------------------------------

                                     Primitive cell                                     

  volume of cell :    3371.8164

  direct lattice vectors                    reciprocal lattice vectors
    19.053418745 -0.001077099 -0.000439511     0.052484019 -0.000005582 -0.000007462
     0.002421812 28.967286740 -4.637033497     0.000002117  0.035345391  0.005145546
     0.000792429 -0.910589244  6.254949290     0.000005257  0.026202892  0.163687988

  length of vectors
    19.053418781 29.336083355  6.320883168     0.052484020  0.035717969  0.165771979

  position of ions in fractional coordinates (direct lattice)
     0.938258909  0.964892271  0.152584231
     0.871896754  0.952260534  0.420367526
     0.938846725  0.790706190  0.892568351
     0.561394102  0.464906458  0.652450890
     0.627406909  0.303071070  0.124340539
     0.128097909  0.803585469  0.125018873
     0.627785369  0.452295050  0.920169084
     0.560783199  0.290671369  0.392089736
     0.372230288  0.452588208  0.420137225
     0.061614141  0.790883869  0.392373733
     0.127510556  0.952586911  0.920311159
     0.371820216  0.303459602  0.624568423
     0.872281275  0.803136328  0.624819946
     0.061053887  0.964996846  0.652272369
     0.438259789  0.290841368  0.892162828
     0.438765052  0.465023697  0.152293961
     0.801233610  0.021027262  0.095792145
     0.846255141  0.064419971  0.476616924
     0.847063269  0.691065932  0.569638146
     0.653419190  0.564422706  0.976728245
     0.652567848  0.190968398  0.069115654
     0.199092161  0.734913026  0.449083378
     0.698403415  0.521101942  0.595733694
     0.697735320  0.234405303  0.449685937
     0.301843438  0.521361436  0.095394994
     0.153517049  0.691443107  0.069031777
     0.152633636  0.064723514  0.975643731
     0.346437599  0.191336206  0.568803920
     0.801794071  0.734479002  0.950145001
     0.197968727  0.021311087  0.595203207
     0.300908297  0.234805526  0.948948889
     0.347213038  0.564760425  0.475766100
     0.762558678  0.064757373  0.094241471
     0.808357140  0.107731647  0.464950859
     0.809270463  0.647726887  0.581351579
     0.691226317  0.607763449  0.965086085
     0.690401160  0.147645009  0.080926452
     0.237576137  0.691124181  0.450751502
     0.737086187  0.564833471  0.594384548
     0.736259381  0.190642813  0.451544665
     0.263396850  0.565164506  0.093725052
     0.191425848  0.648123904  0.080493673
     0.190408202  0.108078050  0.963943453
     0.308492537  0.148029884  0.580248293
     0.763275502  0.690704838  0.951863010
     0.236434762  0.065105114  0.593484069
     0.262398956  0.191029086  0.950640513
     0.309483948  0.608135243  0.464054207
     0.721809846  0.064559996  0.911686589
     0.812928764  0.149508200  0.640871568
     0.813931927  0.605948010  0.405496501
     0.686617741  0.649523822  0.141055529
     0.685827037  0.105868186  0.905030554
     0.278376886  0.691281658  0.633162194
     0.777930502  0.564638974  0.412013726
     0.776988680  0.190825573  0.634117292
     0.222585337  0.564993778  0.911330831
     0.186703048  0.606337473  0.904688833
     0.185714096  0.149858616  0.139784897
     0.313150409  0.106254177  0.404366726
     0.722510838  0.690863464  0.134372915
     0.277217711  0.064926085  0.410998806
     0.221597022  0.191200159  0.133094432
     0.314218858  0.649921845  0.639846509
     0.880707484  0.982674868  0.289154672
     0.881224685  0.772847920  0.756555011
     0.618938741  0.482708833  0.788977230
     0.618381005  0.272764308  0.255951616
     0.119312341  0.773197751  0.256332087
     0.381220063  0.482924269  0.288642688
     0.118585186  0.982897769  0.788662865
     0.380631264  0.273095182  0.755989550
     0.767608580  0.106709413  0.276350408
     0.768457469  0.648744631  0.769852746
     0.731978622  0.606775200  0.776510618
     0.731136527  0.148672229  0.269566522
     0.232288826  0.649142383  0.268878652
     0.268681512  0.607144433  0.275593916
     0.231209724  0.107075345  0.775434826
     0.267646208  0.149054066  0.768704820
     0.033185560  0.877891349  0.022189307
     0.966624310  0.877777215  0.522032514
     0.466544246  0.377903778  0.522063987
     0.533143705  0.377774380  0.021804423
     0.345060782  0.106557103  0.261686990
     0.780880314  0.531799418  0.274391733
     0.779917625  0.223665499  0.771741809
     0.718944017  0.031722438  0.774018316
     0.719514437  0.723705051  0.271982825
     0.654797796  0.649200940  0.283895904
     0.154779891  0.606651400  0.762062626
     0.153857412  0.149537963  0.282561544
     0.845851386  0.606232175  0.262806661
     0.218566082  0.224048227  0.270657938
     0.219523705  0.532133517  0.773848493
     0.281432954  0.724138316  0.770680224
     0.346082400  0.649591003  0.782574818
     0.653995095  0.106171758  0.762209466
     0.844755526  0.149212855  0.783732589
     0.280216454  0.032063024  0.273498299
     0.664562048  0.454119720  0.053804576
     0.335006008  0.301621018  0.491018427
     0.462753880  0.477787720  0.024955479
     0.037646968  0.778018262  0.519450327
     0.164287557  0.954515726  0.054069495
     0.462206297  0.278005814  0.019356928
     0.962144970  0.977730541  0.025307839
     0.835444637  0.801209250  0.491230920
     0.037096377  0.977734866  0.524795983
     0.537465197  0.477737746  0.525217908
     0.664244943  0.301129958  0.990709957
     0.835141846  0.954079741  0.554088281
     0.536722430  0.277932662  0.519419698
     0.335403962  0.454495739  0.553787743
     0.164953186  0.801797606  0.991607984
     0.962875574  0.777964949  0.019920584
     0.962505778  0.925994065  0.199325048
     0.921416024  0.917925080  0.361997741
     0.962981217  0.829547685  0.845062055
     0.537189475  0.426000492  0.699213337
     0.577989510  0.337484128  0.182115018
     0.078439190  0.837830280  0.182806632
     0.578306291  0.417941721  0.861824016
     0.536744795  0.329556845  0.344771499
     0.421644787  0.418177669  0.362101288
     0.037281576  0.829716380  0.345216764
     0.078084519  0.918187790  0.862315584
     0.421392244  0.337757659  0.682465380
     0.921771999  0.837495306  0.682400264
     0.036932775  0.926120775  0.699497877
     0.462520819  0.329694937  0.845031213
     0.462840838  0.426123523  0.199384060
     0.840619417  0.023617304  0.289023155
     0.841276529  0.731881932  0.757074072
     0.658995619  0.523664773  0.788917227
     0.658295053  0.231784505  0.256537673
     0.159424374  0.732270494  0.256367341
     0.341331658  0.523933377  0.288379712
     0.158497243  0.023890897  0.788281406
     0.340559450  0.232159048  0.756157664
     0.799652069  0.984175938  0.939293911
     0.880905393  0.063396914  0.639065201
     0.881726920  0.692121080  0.407254049
     0.618888024  0.563343406  0.139333059
     0.617930911  0.192015204  0.906687809
     0.201029459  0.771850524  0.605064903
     0.700019486  0.484270219  0.439145372
     0.699511101  0.271325899  0.605780189
     0.299961666  0.484462616  0.939184435
     0.118616286  0.692466427  0.907076303
     0.117909819  0.063685372  0.137945252
     0.381335771  0.192354302  0.406801394
     0.799981339  0.771381851  0.106333158
     0.199810600  0.984415960  0.438979207
     0.299001216  0.271737116  0.104975961
     0.381926340  0.563699095  0.638023665

  ion indices of the primitive-cell ions
   primitive index   ion index
                 1           1
                 2           2
                 3           3
                 4           4
                 5           5
                 6           6
                 7           7
                 8           8
                 9           9
                10          10
                11          11
                12          12
                13          13
                14          14
                15          15
                16          16
                17          17
                18          18
                19          19
                20          20
                21          21
                22          22
                23          23
                24          24
                25          25
                26          26
                27          27
                28          28
                29          29
                30          30
                31          31
                32          32
                33          33
                34          34
                35          35
                36          36
                37          37
                38          38
                39          39
                40          40
                41          41
                42          42
                43          43
                44          44
                45          45
                46          46
                47          47
                48          48
                49          49
                50          50
                51          51
                52          52
                53          53
                54          54
                55          55
                56          56
                57          57
                58          58
                59          59
                60          60
                61          61
                62          62
                63          63
                64          64
                65          65
                66          66
                67          67
                68          68
                69          69
                70          70
                71          71
                72          72
                73          73
                74          74
                75          75
                76          76
                77          77
                78          78
                79          79
                80          80
                81          81
                82          82
                83          83
                84          84
                85          85
                86          86
                87          87
                88          88
                89          89
                90          90
                91          91
                92          92
                93          93
                94          94
                95          95
                96          96
                97          97
                98          98
                99          99
               100         100
               101         101
               102         102
               103         103
               104         104
               105         105
               106         106
               107         107
               108         108
               109         109
               110         110
               111         111
               112         112
               113         113
               114         114
               115         115
               116         116
               117         117
               118         118
               119         119
               120         120
               121         121
               122         122
               123         123
               124         124
               125         125
               126         126
               127         127
               128         128
               129         129
               130         130
               131         131
               132         132
               133         133
               134         134
               135         135
               136         136
               137         137
               138         138
               139         139
               140         140
               141         141
               142         142
               143         143
               144         144
               145         145
               146         146
               147         147
               148         148
               149         149
               150         150
               151         151
               152         152
               153         153
               154         154
               155         155
               156         156

----------------------------------------------------------------------------------------

 
 

Automatic generation of k-mesh.
 generate k-points for:    2    1    4
Space group operators:
 irot       det(A)        alpha          n_x          n_y          n_z        tau_x        tau_y        tau_z
    1     1.000000     0.000000     1.000000     0.000000     0.000000     0.000000     0.000000     0.000000
 
 Subroutine IBZKPT returns following result:
 ===========================================
 
 Found      6 irreducible k-points:
 
 Following reciprocal coordinates:
            Coordinates               Weight
  0.000000  0.000000  0.000000      1.000000
  0.500000  0.000000 -0.000000      1.000000
  0.000000  0.000000  0.250000      2.000000
  0.500000  0.000000  0.250000      2.000000
  0.000000  0.000000  0.500000      1.000000
  0.500000  0.000000  0.500000      1.000000
 
 Following cartesian coordinates:
            Coordinates               Weight
  0.000000  0.000000  0.000000      1.000000
  0.026242 -0.000003 -0.000004      1.000000
  0.000001  0.006551  0.040922      2.000000
  0.026243  0.006548  0.040918      2.000000
  0.000003  0.013101  0.081844      1.000000
  0.026245  0.013099  0.081840      1.000000
 


--------------------------------------------------------------------------------------------------------




 Dimension of arrays:
   k-points           NKPTS =      6   k-points in BZ     NKDIM =      6   number of bands    NBANDS=    400
   number of dos      NEDOS =    301   number of ions     NIONS =    156
   non local maximal  LDIM  =      6   non local SUM 2l+1 LMDIM =     18
   total plane-waves  NPLWV = 864000
   max r-space proj   IRMAX =   2444   max aug-charges    IRDMAX=   7836
   dimension x,y,z NGX =   120 NGY =  180 NGZ =   40
   dimension x,y,z NGXF=   240 NGYF=  360 NGZF=   80
   support grid    NGXF=   240 NGYF=  360 NGZF=   80
   ions per type =              80   4  32  24  16
   NGX,Y,Z   is equivalent  to a cutoff of  10.47, 10.20, 10.52 a.u.
   NGXF,Y,Z  is equivalent  to a cutoff of  20.94, 20.40, 21.04 a.u.

 SYSTEM =  flex_MOF                                
 POSCAR =  Zn_H                                    

 Startparameter for this run:
   NWRITE =      2    write-flag & timer
   PREC   = normal    normal or accurate (medium, high low for compatibility)
   ISTART =      0    job   : 0-new  1-cont  2-samecut
   ICHARG =      2    charge: 1-file 2-atom 10-const
   ISPIN  =      1    spin polarized calculation?
   LNONCOLLINEAR =      F non collinear calculations
   LSORBIT =      F    spin-orbit coupling
   INIWAV =      1    electr: 0-lowe 1-rand  2-diag
   LASPH  =      F    aspherical Exc in radial PAW
   METAGGA=      F    non-selfconsistent MetaGGA calc.

 Electronic Relaxation 1
   ENCUT  =  600.0 eV  44.10 Ry    6.64 a.u.  38.05 58.59 12.62*2*pi/ulx,y,z
   ENINI  =  600.0     initial cutoff
   ENAUG  =  644.9 eV  augmentation charge cutoff
   NELM   =     80;   NELMIN=  4; NELMDL=-12     # of ELM steps 
   EDIFF  = 0.1E-05   stopping-criterion for ELM
   LREAL  =      T    real-space projection
   NLSPLINE    = F    spline interpolate recip. space projectors
   LCOMPAT=      F    compatible to vasp.4.4
   GGA_COMPAT  = T    GGA compatible to vasp.4.4-vasp.4.6
   LMAXPAW     = -100 max onsite density
   LMAXMIX     =    2 max onsite mixed and CHGCAR
   VOSKOWN=      0    Vosko Wilk Nusair interpolation
   ROPT   =   -0.00050  -0.00050  -0.00050  -0.00050
   ROPT   =   -0.00050
 Ionic relaxation
   EDIFFG = -.1E-01   stopping-criterion for IOM
   NSW    =   1000    number of steps for IOM
   NBLOCK =      1;   KBLOCK =   1000    inner block; outer block 
   IBRION =      2    ionic relax: 0-MD 1-quasi-New 2-CG
   NFREE  =      1    steps in history (QN), initial steepest desc. (CG)
   ISIF   =      4    stress and relaxation
   IWAVPR =     11    prediction:  0-non 1-charg 2-wave 3-comb
   ISYM   =      0    0-nonsym 1-usesym 2-fastsym
   LCORR  =      T    Harris-Foulkes like correction to forces

   POTIM  = 0.5000    time-step for ionic-motion
   TEIN   =    0.0    initial temperature
   TEBEG  =    0.0;   TEEND  =   0.0 temperature during run
   SMASS  =  -3.00    Nose mass-parameter (am)
   estimated Nose-frequenzy (Omega)   =  0.10E-29 period in steps = 0.13E+47 mass=  -0.830E-26a.u.
   SCALEE = 1.0000    scale energy and forces
   NPACO  =    256;   APACO  = 16.0  distance and # of slots for P.C.
   PSTRESS=    0.0 pullay stress

  Mass of Ions in am
   POMASS =  12.01 65.39  1.00 14.00 16.00
  Ionic Valenz
   ZVAL   =   4.00 12.00  1.00  5.00  6.00
  Atomic Wigner-Seitz radii
   RWIGS  =  -1.00 -1.00 -1.00 -1.00 -1.00
  virtual crystal weights 
   VCA    =   1.00  1.00  1.00  1.00  1.00
   NELECT =     616.0000    total number of electrons
   NUPDOWN=      -1.0000    fix difference up-down

 DOS related values:
   EMIN   =  10.00;   EMAX   =-10.00  energy-range for DOS
   EFERMI =   0.00
   ISMEAR =     0;   SIGMA  =   0.05  broadening in eV -4-tet -1-fermi 0-gaus

 Electronic relaxation 2 (details)
   IALGO  =     48    algorithm
   LDIAG  =      T    sub-space diagonalisation (order eigenvalues)
   LSUBROT=      F    optimize rotation matrix (better conditioning)
   TURBO    =      0    0=normal 1=particle mesh
   IRESTART =      0    0=no restart 2=restart with 2 vectors
   NREBOOT  =      0    no. of reboots
   NMIN     =      0    reboot dimension
   EREF     =   0.00    reference energy to select bands
   IMIX   =      4    mixing-type and parameters
     AMIX     =   0.40;   BMIX     =  1.00
     AMIX_MAG =   1.60;   BMIX_MAG =  1.00
     AMIN     =   0.10
     WC   =   100.;   INIMIX=   1;  MIXPRE=   1;  MAXMIX= -45

 Intra band minimization:
   WEIMIN = 0.0010     energy-eigenvalue tresh-hold
   EBREAK =  0.63E-09  absolut break condition
   DEPER  =   0.30     relativ break condition  

   TIME   =   0.40     timestep for ELM

  volume/ion in A,a.u.               =      21.61       145.86
  Fermi-wavevector in a.u.,A,eV,Ry     =   0.928925  1.755413 11.740478  0.862901
  Thomas-Fermi vector in A             =   2.055153
 
 Write flags
   LWAVE        =      T    write WAVECAR
   LDOWNSAMPLE  =      F    k-point downsampling of WAVECAR
   LCHARG       =      T    write CHGCAR
   LVTOT        =      F    write LOCPOT, total local potential
   LVHAR        =      F    write LOCPOT, Hartree potential only
   LELF         =      F    write electronic localiz. function (ELF)
   LORBIT       =      0    0 simple, 1 ext, 2 COOP (PROOUT), +10 PAW based schemes


 Dipole corrections
   LMONO  =      F    monopole corrections only (constant potential shift)
   LDIPOL =      F    correct potential (dipole corrections)
   IDIPOL =      0    1-x, 2-y, 3-z, 4-all directions 
   EPSILON=  1.0000000 bulk dielectric constant

 Exchange correlation treatment:
   GGA     =    PE    GGA type
   LEXCH   =     8    internal setting for exchange type
   VOSKOWN=      0    Vosko Wilk Nusair interpolation
   LHFCALC =     F    Hartree Fock is set to
   LHFONE  =     F    Hartree Fock one center treatment
   AEXX    =    0.0000 exact exchange contribution

 Linear response parameters
   LEPSILON=     F    determine dielectric tensor
   LRPA    =     F    only Hartree local field effects (RPA)
   LNABLA  =     F    use nabla operator in PAW spheres
   LVEL    =     F    velocity operator in full k-point grid
   LINTERFAST=   F  fast interpolation
   KINTER  =     0    interpolate to denser k-point grid
   CSHIFT  =0.1000    complex shift for real part using Kramers Kronig
   OMEGAMAX=  -1.0    maximum frequency
   DEG_THRESHOLD= 0.2000000E-02 threshold for treating states as degnerate
   RTIME   =   -0.100 relaxation time in fs
  (WPLASMAI=    0.000 imaginary part of plasma frequency in eV, 0.658/RTIME)
   DFIELD  = 0.0000000 0.0000000 0.0000000 field for delta impulse in time
 
 Orbital magnetization related:
   ORBITALMAG=     F  switch on orbital magnetization
   LCHIMAG   =     F  perturbation theory with respect to B field
   DQ        =  0.001000  dq finite difference perturbation B field
   LLRAUG    =     F  two centre corrections for induced B field



--------------------------------------------------------------------------------------------------------


 conjugate gradient relaxation of ions
 charge density and potential will be updated during run
 non-spin polarized calculation
 RMM-DIIS sequential band-by-band
 perform sub-space diagonalisation
    before iterative eigenvector-optimisation
 modified Broyden-mixing scheme, WC =      100.0
 initial mixing is a Kerker type mixing with AMIX =  0.4000 and BMIX =      1.0000
 Hartree-type preconditioning will be used
 using additional bands           92
 real space projection scheme for non local part
 use partial core corrections
 calculate Harris-corrections to forces 
   (improved forces if not selfconsistent)
 use gradient corrections 
 use of overlap-Matrix (Vanderbilt PP)
 Gauss-broadening in eV      SIGMA  =   0.05


--------------------------------------------------------------------------------------------------------


  energy-cutoff  :      600.00
  volume of cell :     3371.82
      direct lattice vectors                 reciprocal lattice vectors
    19.053418745 -0.001077099 -0.000439511     0.052484019 -0.000005582 -0.000007462
     0.002421812 28.967286740 -4.637033497     0.000002117  0.035345391  0.005145546
     0.000792429 -0.910589244  6.254949290     0.000005257  0.026202892  0.163687988

  length of vectors
    19.053418781 29.336083355  6.320883168     0.052484020  0.035717969  0.165771979


 
 k-points in units of 2pi/SCALE and weight: read from INCAR                         
   0.00000000  0.00000000  0.00000000       0.125
   0.02624201 -0.00000279 -0.00000373       0.125
   0.00000131  0.00655072  0.04092200       0.250
   0.02624332  0.00654793  0.04091827       0.250
   0.00000263  0.01310145  0.08184399       0.125
   0.02624464  0.01309865  0.08184026       0.125
 
 k-points in reciprocal lattice and weights: read from INCAR                         
   0.00000000  0.00000000  0.00000000       0.125
   0.50000000  0.00000000 -0.00000000       0.125
   0.00000000  0.00000000  0.25000000       0.250
   0.50000000  0.00000000  0.25000000       0.250
   0.00000000  0.00000000  0.50000000       0.125
   0.50000000  0.00000000  0.50000000       0.125
 
 position of ions in fractional coordinates (direct lattice) 
   0.93825891  0.96489227  0.15258423
   0.87189675  0.95226053  0.42036753
   0.93884672  0.79070619  0.89256835
   0.56139410  0.46490646  0.65245089
   0.62740691  0.30307107  0.12434054
   0.12809791  0.80358547  0.12501887
   0.62778537  0.45229505  0.92016908
   0.56078320  0.29067137  0.39208974
   0.37223029  0.45258821  0.42013723
   0.06161414  0.79088387  0.39237373
   0.12751056  0.95258691  0.92031116
   0.37182022  0.30345960  0.62456842
   0.87228127  0.80313633  0.62481995
   0.06105389  0.96499685  0.65227237
   0.43825979  0.29084137  0.89216283
   0.43876505  0.46502370  0.15229396
   0.80123361  0.02102726  0.09579215
   0.84625514  0.06441997  0.47661692
   0.84706327  0.69106593  0.56963815
   0.65341919  0.56442271  0.97672824
   0.65256785  0.19096840  0.06911565
   0.19909216  0.73491303  0.44908338
   0.69840342  0.52110194  0.59573369
   0.69773532  0.23440530  0.44968594
   0.30184344  0.52136144  0.09539499
   0.15351705  0.69144311  0.06903178
   0.15263364  0.06472351  0.97564373
   0.34643760  0.19133621  0.56880392
   0.80179407  0.73447900  0.95014500
   0.19796873  0.02131109  0.59520321
   0.30090830  0.23480553  0.94894889
   0.34721304  0.56476042  0.47576610
   0.76255868  0.06475737  0.09424147
   0.80835714  0.10773165  0.46495086
   0.80927046  0.64772689  0.58135158
   0.69122632  0.60776345  0.96508609
   0.69040116  0.14764501  0.08092645
   0.23757614  0.69112418  0.45075150
   0.73708619  0.56483347  0.59438455
   0.73625938  0.19064281  0.45154466
   0.26339685  0.56516451  0.09372505
   0.19142585  0.64812390  0.08049367
   0.19040820  0.10807805  0.96394345
   0.30849254  0.14802988  0.58024829
   0.76327550  0.69070484  0.95186301
   0.23643476  0.06510511  0.59348407
   0.26239896  0.19102909  0.95064051
   0.30948395  0.60813524  0.46405421
   0.72180985  0.06456000  0.91168659
   0.81292876  0.14950820  0.64087157
   0.81393193  0.60594801  0.40549650
   0.68661774  0.64952382  0.14105553
   0.68582704  0.10586819  0.90503055
   0.27837689  0.69128166  0.63316219
   0.77793050  0.56463897  0.41201373
   0.77698868  0.19082557  0.63411729
   0.22258534  0.56499378  0.91133083
   0.18670305  0.60633747  0.90468883
   0.18571410  0.14985862  0.13978490
   0.31315041  0.10625418  0.40436673
   0.72251084  0.69086346  0.13437291
   0.27721771  0.06492609  0.41099881
   0.22159702  0.19120016  0.13309443
   0.31421886  0.64992185  0.63984651
   0.88070748  0.98267487  0.28915467
   0.88122468  0.77284792  0.75655501
   0.61893874  0.48270883  0.78897723
   0.61838101  0.27276431  0.25595162
   0.11931234  0.77319775  0.25633209
   0.38122006  0.48292427  0.28864269
   0.11858519  0.98289777  0.78866286
   0.38063126  0.27309518  0.75598955
   0.76760858  0.10670941  0.27635041
   0.76845747  0.64874463  0.76985275
   0.73197862  0.60677520  0.77651062
   0.73113653  0.14867223  0.26956652
   0.23228883  0.64914238  0.26887865
   0.26868151  0.60714443  0.27559392
   0.23120972  0.10707534  0.77543483
   0.26764621  0.14905407  0.76870482
   0.03318556  0.87789135  0.02218931
   0.96662431  0.87777722  0.52203251
   0.46654425  0.37790378  0.52206399
   0.53314370  0.37777438  0.02180442
   0.34506078  0.10655710  0.26168699
   0.78088031  0.53179942  0.27439173
   0.77991762  0.22366550  0.77174181
   0.71894402  0.03172244  0.77401832
   0.71951444  0.72370505  0.27198282
   0.65479780  0.64920094  0.28389590
   0.15477989  0.60665140  0.76206263
   0.15385741  0.14953796  0.28256154
   0.84585139  0.60623217  0.26280666
   0.21856608  0.22404823  0.27065794
   0.21952371  0.53213352  0.77384849
   0.28143295  0.72413832  0.77068022
   0.34608240  0.64959100  0.78257482
   0.65399509  0.10617176  0.76220947
   0.84475553  0.14921285  0.78373259
   0.28021645  0.03206302  0.27349830
   0.66456205  0.45411972  0.05380458
   0.33500601  0.30162102  0.49101843
   0.46275388  0.47778772  0.02495548
   0.03764697  0.77801826  0.51945033
   0.16428756  0.95451573  0.05406950
   0.46220630  0.27800581  0.01935693
   0.96214497  0.97773054  0.02530784
   0.83544464  0.80120925  0.49123092
   0.03709638  0.97773487  0.52479598
   0.53746520  0.47773775  0.52521791
   0.66424494  0.30112996  0.99070996
   0.83514185  0.95407974  0.55408828
   0.53672243  0.27793266  0.51941970
   0.33540396  0.45449574  0.55378774
   0.16495319  0.80179761  0.99160798
   0.96287557  0.77796495  0.01992058
   0.96250578  0.92599407  0.19932505
   0.92141602  0.91792508  0.36199774
   0.96298122  0.82954768  0.84506206
   0.53718948  0.42600049  0.69921334
   0.57798951  0.33748413  0.18211502
   0.07843919  0.83783028  0.18280663
   0.57830629  0.41794172  0.86182402
   0.53674479  0.32955684  0.34477150
   0.42164479  0.41817767  0.36210129
   0.03728158  0.82971638  0.34521676
   0.07808452  0.91818779  0.86231558
   0.42139224  0.33775766  0.68246538
   0.92177200  0.83749531  0.68240026
   0.03693277  0.92612077  0.69949788
   0.46252082  0.32969494  0.84503121
   0.46284084  0.42612352  0.19938406
   0.84061942  0.02361730  0.28902315
   0.84127653  0.73188193  0.75707407
   0.65899562  0.52366477  0.78891723
   0.65829505  0.23178451  0.25653767
   0.15942437  0.73227049  0.25636734
   0.34133166  0.52393338  0.28837971
   0.15849724  0.02389090  0.78828141
   0.34055945  0.23215905  0.75615766
   0.79965207  0.98417594  0.93929391
   0.88090539  0.06339691  0.63906520
   0.88172692  0.69212108  0.40725405
   0.61888802  0.56334341  0.13933306
   0.61793091  0.19201520  0.90668781
   0.20102946  0.77185052  0.60506490
   0.70001949  0.48427022  0.43914537
   0.69951110  0.27132590  0.60578019
   0.29996167  0.48446262  0.93918444
   0.11861629  0.69246643  0.90707630
   0.11790982  0.06368537  0.13794525
   0.38133577  0.19235430  0.40680139
   0.79998134  0.77138185  0.10633316
   0.19981060  0.98441596  0.43897921
   0.29900122  0.27173712  0.10497596
   0.38192634  0.56369910  0.63802366
 
 position of ions in cartesian coordinates  (Angst):
  17.87949758 27.81035893 -3.52024353
  16.61525326 27.20068268 -1.78666964
  17.89086202 22.09083857  1.91602605
  10.69811985 12.87235923  1.92501368
  11.95507907  8.66524764 -0.62788268
   2.44274830 23.16371187 -2.94432232
  11.96328206 12.26318814  3.65802774
  10.68585177  8.06232417  1.10440207
   7.09368856 12.72727904  0.52910676
   1.17618632 22.55240216 -1.21310427
   2.43254829 26.75569542  1.33926617
   7.08567613  8.22127553  2.49932805
  16.62238056 22.69478644  0.18366365
   1.16613919 27.35932237 -0.39481894
   8.35175863  7.61201937  4.23159947
   8.36122115 13.33132494 -1.20393230
  15.26636632  0.52101241  0.50131874
  16.12458726  1.43115802  2.68212519
  16.14157619 19.49868626  0.35818955
  12.45201036 15.45969234  3.49185146
  12.43416573  5.46819750 -0.45349876
   3.79552199 20.87929141 -0.59891007
  13.30870681 14.55168844  1.30960993
  13.29516725  6.37985492  1.72551083
   5.75248765 15.01523544 -1.82101225
   2.92675387 19.96620581 -2.77452206
   2.90912246  0.98628951  5.80240987
   6.60173476  5.02417086  2.67045502
  15.27944987 20.40980843  2.53695267
   3.77250433  0.07512550  3.62405864
   5.73465241  5.93725225  4.84669384
   6.61734017 15.92597568  0.35692722
  14.52958133  1.78920878  0.28885836
  15.40259642  2.69644358  2.40833350
  15.42139835 18.23264630  0.63243769
  13.17246112 16.72571658  3.21804125
  13.15492409  4.20244093 -0.17874744
   4.52866858 19.60928696 -0.38544261
  14.04585071 15.81965902  1.09836952
  14.02907782  5.11044030  1.94004828
   5.02005346 16.28565358 -2.03455706
   3.64895026 18.70088812 -2.50197254
   3.62895280  2.25276625  5.52817219
   5.87865579  3.75932398  2.94286853
  14.54543480 19.14026675  2.75069792
   4.50551849  1.34524362  3.41021425
   5.00081314  4.66766864  5.06028461
   5.89856778 17.19313184  0.08255602
  13.75382405  1.03917847  5.40286928
  15.48994207  3.74640054  3.31498734
  15.50997465 17.18255232 -0.27379890
  13.08410014 18.68575958 -2.12987031
  13.06832329  2.24186430  5.16970447
   5.30620728 19.44770349  0.75477886
  14.82392955 15.98004588 -0.04146678
  14.80525531  4.94944182  3.08116543
   4.24310211 15.53624898  3.08033523
   3.55951670 16.73995042  2.84709355
   3.53896214  4.21351084  0.17936640
   5.96716363  2.70934592  2.03645155
  13.76808116 19.88930332 -2.36337881
   5.28242805  1.50618285  2.26959042
   4.22274936  5.41711678 -0.05420001
   5.98902450 18.24349666  0.98836000
  16.78309748 28.20117494 -2.74843555
  16.79281414 21.69744729  1.14810423
  11.79469324 13.26366433  2.69640351
  11.78313564  7.66750907  0.33587536
   2.27538365 22.16389921 -1.98205211
   7.26494378 13.72576024 -0.43405819
   2.26245855 27.75360586  0.37526423
   7.25358731  7.22202051  3.46215750
  14.62604512  2.83861365  1.23340529
  14.64392313 18.09052442  1.80680155
  13.94878002 16.86876057  2.04307590
  13.93122408  4.06037920  0.99640548
   4.42768144 18.55880533 -1.32837473
   5.12099013 17.33608463 -1.09164120
   4.40620948  2.39533056  4.35369194
   5.10054540  3.61742924  4.11692334
   0.63444204 25.40988935 -3.93203319
  18.42003724 24.95042595 -0.80542029
   8.89059179 10.47095874  1.51292623
  10.15914244 10.92266966 -1.61560121
   6.57505300  2.84800912  1.14257834
  14.87994496 15.15408698 -0.75000855
  14.86125032  5.77540282  3.78971868
  13.69903159  0.21332584  4.69403132
  13.71117806 20.71533210 -1.65492202
  12.47793381 18.54637194 -1.23489981
   2.95115916 16.87895233  1.95353219
   2.93209575  4.07424582  1.07392796
  16.11803709 17.32068126 -1.16764832
   4.16518816  6.24337560  0.65393649
   4.18457902 14.70956961  2.37276565
   5.36462435 20.27424600  1.46258840
   6.59624621 18.10391186  1.88263846
  12.46170352  2.38074360  4.27497212
  16.09646319  3.60772320  4.20993132
   5.33937581  0.67943239  1.56191751
  12.66332141 13.10490648 -1.76951554
   6.38412931  8.28966558  1.67252136
   8.81822034 13.81699127 -2.05962579
   0.71959928 22.06403166 -0.35857784
   3.13259412 27.60031869 -4.08799165
   8.80729873  8.03495007 -1.16824881
  18.33453894 28.29811957 -4.37589289
  15.92040615 22.76064865 -0.64297682
   0.70959656 27.84441268 -1.25123337
  10.24212265 13.35992960  1.06968923
  12.65765139  7.82007254  4.80019890
  15.91505698 27.13165506 -0.95867267
  10.22748192  7.57739901  1.95992491
   6.39213168 12.66087396  1.35625487
   3.14564970 22.32277592  2.48442280
  18.34797137 22.51635716 -3.48327048
  18.34142618 26.64099565 -3.04752046
  17.55863525 26.25917529 -1.99257680
  18.35076304 23.25920400  1.43875666
  10.23688178 11.70280367  2.39792931
  11.01363781  9.60954499 -0.42605904
   1.49670867 24.10312373 -2.74163534
  11.02040704 11.32124709  3.45240159
  10.22789466  9.23184428  0.62812621
   8.03507438 11.78329276  0.32563602
   0.71262445 23.72024145 -1.68812568
   1.49068404 25.81210959  1.13603839
   8.03032168  9.16202343  2.70240756
  17.56547689 23.63758748  0.38448013
   0.70649282 26.19021101  0.08085446
   8.81407093  8.78039325  3.75661764
   8.81989029 12.16158677 -0.72901529
  16.01695998  0.42004241  1.69794149
  16.03156640 20.51034414  1.34132914
  12.55801285 14.45005830  2.50609652
  12.54353593  6.47985874  0.52954829
   3.03955592 20.97827233 -1.79206816
   6.50503240 14.91396526 -0.62584617
   3.02059687 -0.02591681  4.81980767
   6.48998325  6.03610185  3.65304888
  15.23923353 27.65273437  1.31122753
  16.78491927  1.25356185  3.70295965
  16.80191113 19.67707891 -0.66242273
  11.79340740 16.19098818 -1.74099303
  11.77487991  4.73587373  4.78063375
   3.83264720 21.80723332  0.20546520
  13.33928520 13.62735924  0.50094714
  13.32921507  7.30720474  2.53066964
   5.71721275 13.17803318  3.62794980
   2.26244158 19.23277187  2.46267413
   2.24684870  1.71905395  0.56747754
   7.26653833  5.20114252  1.65240114
  15.24433185 22.24715176 -2.91216657
   3.80980696 28.11591442 -1.81906492
   5.69773665  7.77557492 -0.60356621
   7.27887325 15.74744446  1.37674622
 


--------------------------------------------------------------------------------------------------------


 k-point  1 :   0.0000 0.0000 0.0000  plane waves:  112547
 k-point  2 :   0.5000 0.0000-0.0000  plane waves:  112658
 k-point  3 :   0.0000 0.0000 0.2500  plane waves:  112542
 k-point  4 :   0.5000 0.0000 0.2500  plane waves:  112540
 k-point  5 :   0.0000 0.0000 0.5000  plane waves:  112402
 k-point  6 :   0.5000 0.0000 0.5000  plane waves:  112500

 maximum and minimum number of plane-waves per node :     28348    27936

 maximum number of plane-waves:    112658
 maximum index in each direction: 
   IXMAX=   38   IYMAX=   58   IZMAX=   12
   IXMIN=  -38   IYMIN=  -58   IZMIN=  -13


 real space projection operators:
  total allocation   :      13019.36 KBytes
  max/ min on nodes  :       3265.41       3246.69


 parallel 3D FFT for wavefunctions:
    minimum data exchange during FFTs selected (reduces bandwidth)
 parallel 3D FFT for charge:
    minimum data exchange during FFTs selected (reduces bandwidth)


 total amount of memory used by VASP MPI-rank0   134692. kBytes
=======================================================================

   base      :      30000. kBytes
   nonlr-proj:       6636. kBytes
   fftplans  :      10550. kBytes
   grid      :      18126. kBytes
   one-center:        606. kBytes
   wavefun   :      68774. kBytes
 
     INWAV:  cpu time    0.0003: real time    0.0002
 Broyden mixing: mesh for mixing (old mesh)
   NGX = 77   NGY =117   NGZ = 25
  (NGX  =240   NGY  =360   NGZ  = 80)
  gives a total of 225225 points

 initial charge density was supplied:
 charge density of overlapping atoms calculated
 number of electron     616.0000000 magnetization 
 keeping initial charge density in first step


--------------------------------------------------------------------------------------------------------


 Maximum index for non-local projection operator          557
 Maximum index for augmentation-charges          464 (set IRDMAX)


--------------------------------------------------------------------------------------------------------


 First call to EWALD:  gamma=   0.118
 Maximum number of real-space cells 2x 2x 6
 Maximum number of reciprocal cells 3x 5x 1

    FEWALD:  cpu time    0.0156: real time    0.0156


--------------------------------------- Iteration      1(   1)  ---------------------------------------


    POTLOK:  cpu time    0.1656: real time    0.1955
    SETDIJ:  cpu time    0.0319: real time    0.0326
    EDDIAG:  cpu time    4.9691: real time    5.0351
  RMM-DIIS:  cpu time    6.5241: real time    6.5259
    ORTHCH:  cpu time    1.0703: real time    1.0708
       DOS:  cpu time    0.0040: real time    0.0045
    --------------------------------------------
      LOOP:  cpu time   12.7651: real time   12.8646

 eigenvalue-minimisations  :  2400
 total energy-change (2. order) : 0.7922536E+04  (-0.2294776E+05)
 number of electron     616.0000000 magnetization 
 augmentation part      616.0000000 magnetization 

 Free energy of the ion-electron system (eV)
  ---------------------------------------------------
  alpha Z        PSCENC =       572.95663726
  Ewald energy   TEWEN  =     34335.56148506
  -Hartree energ DENC   =    -61708.14448850
  -exchange      EXHF   =         0.00000000
  -V(xc)+E(xc)   XCENC  =      2272.71055276
  PAW double counting   =     25034.14638475   -25847.60581054
  entropy T*S    EENTRO =        -0.10097308
  eigenvalues    EBANDS =       829.33256443
  atomic energy  EATOM  =     32433.67991533
  Solvation  Ediel_sol  =         0.00000000
  ---------------------------------------------------
  free energy    TOTEN  =      7922.53626748 eV

  energy without entropy =     7922.63724056  energy(sigma->0) =     7922.58675402


--------------------------------------------------------------------------------------------------------




--------------------------------------- Iteration      1(   2)  ---------------------------------------


    EDDIAG:  cpu time    4.8497: real time    4.8506
  RMM-DIIS:  cpu time    6.4518: real time    6.4541
    ORTHCH:  cpu time    1.0844: real time    1.0848
       DOS:  cpu time    0.0028: real time    0.0028
    --------------------------------------------
      LOOP:  cpu time   12.3887: real time   12.3923

 eigenvalue-minimisations  :  2400
 total energy-change (2. order) :-0.4945799E+04  (-0.6757577E+04)
 number of electron     616.0000000 magnetization 
 augmentation part      616.0000000 magnetization 

 Free energy of the ion-electron system (eV)
  ---------------------------------------------------
  alpha Z        PSCENC =       572.95663726
  Ewald energy   TEWEN  =     34335.56148506
  -Hartree energ DENC   =    -61708.14448850
  -exchange      EXHF   =         0.00000000
  -V(xc)+E(xc)   XCENC  =      2272.71055276
  PAW double counting   =     25034.14638475   -25847.60581054
  entropy T*S    EENTRO =        -0.03737106
  eigenvalues    EBANDS =     -4116.53002919
  atomic energy  EATOM  =     32433.67991533
  Solvation  Ediel_sol  =         0.00000000
  ---------------------------------------------------
  free energy    TOTEN  =      2976.73727588 eV

  energy without entropy =     2976.77464694  energy(sigma->0) =     2976.75596141


--------------------------------------------------------------------------------------------------------




--------------------------------------- Iteration      1(   3)  ---------------------------------------


    EDDIAG:  cpu time    4.8449: real time    4.8465
  RMM-DIIS:  cpu time    6.4517: real time    6.4535
    ORTHCH:  cpu time    1.0662: real time    1.0665
       DOS:  cpu time    0.0079: real time    0.0079
    --------------------------------------------
      LOOP:  cpu time   12.3708: real time   12.3744

 eigenvalue-minimisations  :  2400
 total energy-change (2. order) :-0.2117949E+04  (-0.2862291E+04)
 number of electron     616.0000000 magnetization 
 augmentation part      616.0000000 magnetization 

 Free energy of the ion-electron system (eV)
  ---------------------------------------------------
  alpha Z        PSCENC =       572.95663726
  Ewald energy   TEWEN  =     34335.56148506
  -Hartree energ DENC   =    -61708.14448850
  -exchange      EXHF   =         0.00000000
  -V(xc)+E(xc)   XCENC  =      2272.71055276
  PAW double counting   =     25034.14638475   -25847.60581054
  entropy T*S    EENTRO =        -0.05189145
  eigenvalues    EBANDS =     -6234.46433277
  atomic energy  EATOM  =     32433.67991533
  Solvation  Ediel_sol  =         0.00000000
  ---------------------------------------------------
  free energy    TOTEN  =       858.78845190 eV

  energy without entropy =      858.84034336  energy(sigma->0) =      858.81439763


--------------------------------------------------------------------------------------------------------




--------------------------------------- Iteration      1(   4)  ---------------------------------------


    EDDIAG:  cpu time    4.8604: real time    4.8619
  RMM-DIIS:  cpu time    6.4474: real time    6.4485
    ORTHCH:  cpu time    1.0707: real time    1.0709
       DOS:  cpu time    0.0030: real time    0.0030
    --------------------------------------------
      LOOP:  cpu time   12.3816: real time   12.3844

 eigenvalue-minimisations  :  2400
 total energy-change (2. order) :-0.1310651E+04  (-0.1305128E+04)
 number of electron     616.0000000 magnetization 
 augmentation part      616.0000000 magnetization 

 Free energy of the ion-electron system (eV)
  ---------------------------------------------------
  alpha Z        PSCENC =       572.95663726
  Ewald energy   TEWEN  =     34335.56148506
  -Hartree energ DENC   =    -61708.14448850
  -exchange      EXHF   =         0.00000000
  -V(xc)+E(xc)   XCENC  =      2272.71055276
  PAW double counting   =     25034.14638475   -25847.60581054
  entropy T*S    EENTRO =        -0.01383449
  eigenvalues    EBANDS =     -7545.15383344
  atomic energy  EATOM  =     32433.67991533
  Solvation  Ediel_sol  =         0.00000000
  ---------------------------------------------------
  free energy    TOTEN  =      -451.86299181 eV

  energy without entropy =     -451.84915732  energy(sigma->0) =     -451.85607457


--------------------------------------------------------------------------------------------------------




--------------------------------------- Iteration      1(   5)  ---------------------------------------


    EDDIAG:  cpu time    4.8374: real time    4.8390
  RMM-DIIS:  cpu time    6.4450: real time    6.4459
    ORTHCH:  cpu time    1.0713: real time    1.0715
       DOS:  cpu time    0.0034: real time    0.0034
    --------------------------------------------
      LOOP:  cpu time   12.3571: real time   12.3598

 eigenvalue-minimisations  :  2400
 total energy-change (2. order) :-0.5230112E+03  (-0.4651153E+03)
 number of electron     616.0000000 magnetization 
 augmentation part      616.0000000 magnetization 

 Free energy of the ion-electron system (eV)
  ---------------------------------------------------
  alpha Z        PSCENC =       572.95663726
  Ewald energy   TEWEN  =     34335.56148506
  -Hartree energ DENC   =    -61708.14448850
  -exchange      EXHF   =         0.00000000
  -V(xc)+E(xc)   XCENC  =      2272.71055276
  PAW double counting   =     25034.14638475   -25847.60581054
  entropy T*S    EENTRO =        -0.02133127
  eigenvalues    EBANDS =     -8068.15758408
  atomic energy  EATOM  =     32433.67991533
  Solvation  Ediel_sol  =         0.00000000
  ---------------------------------------------------
  free energy    TOTEN  =      -974.87423923 eV

  energy without entropy =     -974.85290795  energy(sigma->0) =     -974.86357359


--------------------------------------------------------------------------------------------------------




--------------------------------------- Iteration      1(   6)  ---------------------------------------


    EDDIAG:  cpu time    4.8492: real time    4.8507
  RMM-DIIS:  cpu time    6.4434: real time    6.4446
    ORTHCH:  cpu time    1.0679: real time    1.0681
       DOS:  cpu time    0.0013: real time    0.0013
    --------------------------------------------
      LOOP:  cpu time   12.3619: real time   12.3647

 eigenvalue-minimisations  :  2400
 total energy-change (2. order) :-0.1758599E+03  (-0.1538610E+03)
 number of electron     616.0000000 magnetization 
 augmentation part      616.0000000 magnetization 

 Free energy of the ion-electron system (eV)
  ---------------------------------------------------
  alpha Z        PSCENC =       572.95663726
  Ewald energy   TEWEN  =     34335.56148506
  -Hartree energ DENC   =    -61708.14448850
  -exchange      EXHF   =         0.00000000
  -V(xc)+E(xc)   XCENC  =      2272.71055276
  PAW double counting   =     25034.14638475   -25847.60581054
  entropy T*S    EENTRO =        -0.00000000
  eigenvalues    EBANDS =     -8244.03878557
  atomic energy  EATOM  =     32433.67991533
  Solvation  Ediel_sol  =         0.00000000
  ---------------------------------------------------
  free energy    TOTEN  =     -1150.73410944 eV

  energy without entropy =    -1150.73410944  energy(sigma->0) =    -1150.73410944


--------------------------------------------------------------------------------------------------------




--------------------------------------- Iteration      1(   7)  ---------------------------------------


    EDDIAG:  cpu time    4.8417: real time    4.8432
  RMM-DIIS:  cpu time    6.4495: real time    6.4515
    ORTHCH:  cpu time    1.0753: real time    1.0755
       DOS:  cpu time    0.0022: real time    0.0022
    --------------------------------------------
      LOOP:  cpu time   12.3688: real time   12.3724

 eigenvalue-minimisations  :  2400
 total energy-change (2. order) :-0.5566675E+02  (-0.5152312E+02)
 number of electron     616.0000000 magnetization 
 augmentation part      616.0000000 magnetization 

 Free energy of the ion-electron system (eV)
  ---------------------------------------------------
  alpha Z        PSCENC =       572.95663726
  Ewald energy   TEWEN  =     34335.56148506
  -Hartree energ DENC   =    -61708.14448850
  -exchange      EXHF   =         0.00000000
  -V(xc)+E(xc)   XCENC  =      2272.71055276
  PAW double counting   =     25034.14638475   -25847.60581054
  entropy T*S    EENTRO =        -0.00000000
  eigenvalues    EBANDS =     -8299.70553979
  atomic energy  EATOM  =     32433.67991533
  Solvation  Ediel_sol  =         0.00000000
  ---------------------------------------------------
  free energy    TOTEN  =     -1206.40086366 eV

  energy without entropy =    -1206.40086366  energy(sigma->0) =    -1206.40086366


--------------------------------------------------------------------------------------------------------




--------------------------------------- Iteration      1(   8)  ---------------------------------------


    EDDIAG:  cpu time    4.8346: real time    4.8361
  RMM-DIIS:  cpu time    6.4539: real time    6.4549
    ORTHCH:  cpu time    1.0698: real time    1.0699
       DOS:  cpu time    0.0025: real time    0.0025
    --------------------------------------------
      LOOP:  cpu time   12.3608: real time   12.3634

 eigenvalue-minimisations  :  2400
 total energy-change (2. order) :-0.2059229E+02  (-0.1813336E+02)
 number of electron     616.0000000 magnetization 
 augmentation part      616.0000000 magnetization 

 Free energy of the ion-electron system (eV)
  ---------------------------------------------------
  alpha Z        PSCENC =       572.95663726
  Ewald energy   TEWEN  =     34335.56148506
  -Hartree energ DENC   =    -61708.14448850
  -exchange      EXHF   =         0.00000000
  -V(xc)+E(xc)   XCENC  =      2272.71055276
  PAW double counting   =     25034.14638475   -25847.60581054
  entropy T*S    EENTRO =        -0.00000000
  eigenvalues    EBANDS =     -8320.29782972
  atomic energy  EATOM  =     32433.67991533
  Solvation  Ediel_sol  =         0.00000000
  ---------------------------------------------------
  free energy    TOTEN  =     -1226.99315360 eV

  energy without entropy =    -1226.99315360  energy(sigma->0) =    -1226.99315360


--------------------------------------------------------------------------------------------------------




--------------------------------------- Iteration      1(   9)  ---------------------------------------


[...]
   -.473E+02 0.135E+03 -.339E+02   0.272E+02 -.124E+03 0.433E+02   0.201E+02 -.110E+02 -.942E+01   0.121E-04 0.489E-04 0.127E-04
   0.343E+03 0.260E+01 -.633E+02   -.344E+03 -.224E+02 0.752E+02   0.856E+00 0.198E+02 -.120E+02   -.207E-04 -.519E-04 -.348E-05
   -.484E+02 0.135E+03 -.344E+02   0.283E+02 -.124E+03 0.438E+02   0.201E+02 -.109E+02 -.943E+01   0.817E-05 0.514E-04 0.128E-04
   -.342E+03 0.234E+01 -.634E+02   0.343E+03 -.221E+02 0.753E+02   -.834E+00 0.198E+02 -.120E+02   0.204E-04 -.502E-04 -.267E-05
   0.343E+03 -.429E+01 0.631E+02   -.344E+03 0.241E+02 -.750E+02   0.781E+00 -.199E+02 0.120E+02   -.214E-04 0.498E-04 0.401E-05
   0.342E+03 -.241E+01 0.637E+02   -.343E+03 0.222E+02 -.756E+02   0.820E+00 -.198E+02 0.120E+02   -.200E-04 0.510E-04 0.303E-05
   -.472E+02 -.135E+03 0.343E+02   0.272E+02 0.124E+03 -.438E+02   0.201E+02 0.110E+02 0.946E+01   0.104E-04 -.506E-04 -.130E-04
   0.488E+02 0.134E+03 -.346E+02   -.287E+02 -.123E+03 0.440E+02   -.201E+02 -.110E+02 -.945E+01   -.105E-04 0.504E-04 0.131E-04
   0.473E+02 -.134E+03 0.343E+02   -.273E+02 0.123E+03 -.438E+02   -.201E+02 0.110E+02 0.946E+01   -.894E-05 -.511E-04 -.140E-04
   0.155E+03 -.508E+02 -.135E+02   -.156E+03 0.509E+02 0.139E+02   0.106E+01 -.106E+00 -.389E+00   0.919E-05 -.129E-03 0.251E-05
   0.154E+03 0.517E+02 0.132E+02   -.155E+03 -.518E+02 -.135E+02   0.103E+01 0.121E+00 0.360E+00   0.889E-05 0.128E-03 -.175E-05
   -.154E+03 -.509E+02 -.133E+02   0.155E+03 0.510E+02 0.136E+02   -.103E+01 -.124E+00 -.365E+00   -.758E-05 -.131E-03 0.841E-06
   -.154E+03 0.518E+02 0.132E+02   0.155E+03 -.519E+02 -.135E+02   -.102E+01 0.129E+00 0.355E+00   -.105E-04 0.130E-03 -.306E-05
   -.155E+03 0.508E+02 0.133E+02   0.156E+03 -.509E+02 -.137E+02   -.105E+01 0.120E+00 0.380E+00   -.946E-05 0.129E-03 -.283E-05
   0.154E+03 -.516E+02 -.135E+02   -.155E+03 0.517E+02 0.139E+02   0.104E+01 -.120E+00 -.382E+00   0.884E-05 -.130E-03 0.176E-05
   -.154E+03 -.516E+02 -.135E+02   0.155E+03 0.517E+02 0.138E+02   -.105E+01 -.114E+00 -.377E+00   -.933E-05 -.130E-03 0.186E-05
   0.155E+03 0.508E+02 0.132E+02   -.156E+03 -.509E+02 -.136E+02   0.104E+01 0.124E+00 0.368E+00   0.967E-05 0.130E-03 -.244E-05
   0.403E+03 0.246E+03 0.193E+03   -.404E+03 -.287E+03 -.229E+03   0.120E+01 0.410E+02 0.354E+02   -.335E-04 -.180E-03 -.530E-04
   -.169E+03 -.195E+03 -.269E+03   0.199E+03 0.187E+03 0.314E+03   -.294E+02 0.803E+01 -.454E+02   -.623E-07 -.551E-04 0.512E-04
   -.171E+03 0.196E+03 0.269E+03   0.200E+03 -.188E+03 -.315E+03   -.294E+02 -.807E+01 0.454E+02   -.489E-06 0.542E-04 -.507E-04
   0.168E+03 -.194E+03 -.269E+03   -.198E+03 0.186E+03 0.314E+03   0.293E+02 0.811E+01 -.454E+02   0.645E-06 -.559E-04 0.514E-04
   0.170E+03 0.196E+03 0.269E+03   -.200E+03 -.188E+03 -.314E+03   0.294E+02 -.806E+01 0.454E+02   -.280E-05 0.542E-04 -.558E-04
   -.405E+03 -.248E+03 -.193E+03   0.407E+03 0.289E+03 0.229E+03   -.151E+01 -.412E+02 -.353E+02   0.350E-04 0.182E-03 0.535E-04
   -.403E+03 0.246E+03 0.194E+03   0.404E+03 -.288E+03 -.229E+03   -.121E+01 0.410E+02 0.355E+02   0.352E-04 -.185E-03 -.568E-04
   -.404E+03 -.246E+03 -.193E+03   0.405E+03 0.287E+03 0.228E+03   -.137E+01 -.412E+02 -.353E+02   0.337E-04 0.181E-03 0.532E-04
   0.404E+03 0.246E+03 0.193E+03   -.406E+03 -.287E+03 -.228E+03   0.146E+01 0.411E+02 0.353E+02   -.340E-04 -.183E-03 -.539E-04
   0.170E+03 0.196E+03 0.269E+03   -.200E+03 -.188E+03 -.314E+03   0.296E+02 -.801E+01 0.452E+02   -.136E-05 0.546E-04 -.522E-04
   0.171E+03 -.196E+03 -.269E+03   -.200E+03 0.188E+03 0.314E+03   0.295E+02 0.804E+01 -.453E+02   -.159E-05 -.528E-04 0.535E-04
   -.170E+03 0.196E+03 0.269E+03   0.200E+03 -.188E+03 -.314E+03   -.296E+02 -.800E+01 0.452E+02   0.113E-05 0.543E-04 -.526E-04
   0.403E+03 -.246E+03 -.193E+03   -.405E+03 0.287E+03 0.228E+03   0.138E+01 -.411E+02 -.353E+02   -.327E-04 0.181E-03 0.532E-04
   -.404E+03 0.246E+03 0.193E+03   0.405E+03 -.287E+03 -.228E+03   -.140E+01 0.411E+02 0.353E+02   0.347E-04 -.184E-03 -.553E-04
   0.405E+03 -.248E+03 -.193E+03   -.407E+03 0.289E+03 0.229E+03   0.146E+01 -.412E+02 -.353E+02   -.353E-04 0.184E-03 0.543E-04
   -.170E+03 -.195E+03 -.269E+03   0.200E+03 0.187E+03 0.314E+03   -.295E+02 0.808E+01 -.453E+02   -.694E-06 -.548E-04 0.496E-04
 -----------------------------------------------------------------------------------------------
   0.114E+00 0.773E-01 -.420E+00   0.711E-12 -.426E-12 0.284E-12   -.123E+00 -.474E-01 0.407E+00   -.317E-05 -.151E-04 -.276E-04
 
 
 POSITION                                       TOTAL-FORCE (eV/Angst)
 -----------------------------------------------------------------------------------
     17.87950     27.81036     -3.52024        -0.000338     -0.001384     -0.000660
     16.61525     27.20068     -1.78667         0.001083     -0.000615      0.000567
     17.89086     22.09084      1.91603         0.001599      0.001412      0.000666
     10.69812     12.87236      1.92501        -0.001794      0.002317     -0.001285
     11.95508      8.66525     -0.62788        -0.002041      0.003695     -0.000356
      2.44275     23.16371     -2.94432         0.000034      0.001987     -0.001100
     11.96328     12.26319      3.65803         0.000393      0.001063     -0.000727
     10.68585      8.06232      1.10440         0.001291     -0.001585      0.001490
      7.09369     12.72728      0.52911         0.001734     -0.000909      0.001480
      1.17619     22.55240     -1.21310         0.001146     -0.000605     -0.001893
      2.43255     26.75570      1.33927        -0.002364     -0.001753      0.000120
      7.08568      8.22128      2.49933        -0.001145      0.000432     -0.000312
     16.62238     22.69479      0.18366         0.000166      0.003749     -0.002214
      1.16614     27.35932     -0.39482        -0.001878     -0.001832      0.001007
      8.35176      7.61202      4.23160        -0.000158      0.001790      0.000375
      8.36122     13.33132     -1.20393         0.001026     -0.000843      0.000889
     15.26637      0.52101      0.50132        -0.002644     -0.000117     -0.001696
     16.12459      1.43116      2.68213        -0.000528      0.000322      0.001602
     16.14158     19.49869      0.35819        -0.001316     -0.003196      0.001554
     12.45201     15.45969      3.49185         0.001048      0.000081     -0.001263
     12.43417      5.46820     -0.45350         0.001415     -0.000651      0.001545
      3.79552     20.87929     -0.59891         0.002339      0.003256      0.001337
     13.30871     14.55169      1.30961         0.001532      0.000851     -0.000120
     13.29517      6.37985      1.72551         0.001694      0.001988      0.001317
      5.75249     15.01524     -1.82101        -0.003175     -0.001635     -0.003336
      2.92675     19.96621     -2.77452        -0.000281     -0.002281      0.001231
      2.90912      0.98629      5.80241         0.001358      0.000891      0.001839
      6.60173      5.02417      2.67046         0.001353     -0.000499     -0.001510
     15.27945     20.40981      2.53695        -0.002734      0.002689      0.003360
      3.77250      0.07513      3.62406         0.001132      0.001636      0.000085
      5.73465      5.93725      4.84669        -0.002095      0.003081      0.001858
      6.61734     15.92598      0.35693        -0.002441      0.001465     -0.002710
     14.52958      1.78921      0.28886         0.000411     -0.002128      0.000499
     15.40260      2.69644      2.40833         0.000682      0.002399      0.001303
     15.42140     18.23265      0.63244        -0.001465     -0.000248      0.000639
     13.17246     16.72572      3.21804         0.000777      0.002522      0.000674
     13.15492      4.20244     -0.17875        -0.002867     -0.001459     -0.000933
      4.52867     19.60929     -0.38544         0.000125     -0.000382      0.002255
     14.04585     15.81966      1.09837         0.000866     -0.001749     -0.001322
     14.02908      5.11044      1.94005        -0.001443      0.000116     -0.000608
      5.02005     16.28565     -2.03456         0.000745     -0.003012     -0.000898
      3.64895     18.70089     -2.50197         0.000423     -0.003335     -0.002240
      3.62895      2.25277      5.52817         0.002391      0.001079      0.000431
      5.87866      3.75932      2.94287         0.000156     -0.001718     -0.001099
     14.54543     19.14027      2.75070         0.001040      0.000032      0.000587
      4.50552      1.34524      3.41021        -0.001824     -0.003365      0.000466
      5.00081      4.66767      5.06028         0.000207      0.001487      0.000563
      5.89857     17.19313      0.08256        -0.001015      0.001219      0.001858
     13.75382      1.03918      5.40287        -0.000224     -0.000829      0.000634
     15.48994      3.74640      3.31499         0.000306     -0.000288      0.001364
     15.50997     17.18255     -0.27380        -0.001270     -0.000344      0.000665
     13.08410     18.68576     -2.12987        -0.000081      0.002807      0.000232
     13.06832      2.24186      5.16970        -0.000922      0.000249     -0.000551
      5.30621     19.44770      0.75478        -0.000655     -0.000487      0.000859
     14.82393     15.98005     -0.04147         0.001542      0.001344      0.001253
     14.80526      4.94944      3.08117        -0.002181     -0.001298      0.000609
      4.24310     15.53625      3.08034        -0.000087     -0.001602      0.000594
      3.55952     16.73995      2.84709         0.001163     -0.000382      0.002036
      3.53896      4.21351      0.17937        -0.000296     -0.002670      0.000102
      5.96716      2.70935      2.03645        -0.001210     -0.001872      0.002511
     13.76808     19.88930     -2.36338         0.001499      0.000445     -0.001326
      5.28243      1.50618      2.26959         0.000085     -0.000331      0.000814
      4.22275      5.41712     -0.05420         0.001636      0.000434      0.000813
      5.98902     18.24350      0.98836         0.000203     -0.001530      0.000238
     16.78310     28.20117     -2.74844         0.000278     -0.001642      0.000513
     16.79281     21.69745      1.14810        -0.002399      0.001652     -0.000544
     11.79469     13.26366      2.69640        -0.001287     -0.002306     -0.001562
     11.78314      7.66751      0.33588        -0.001380      0.000977      0.000891
      2.27538     22.16390     -1.98205        -0.001753      0.000812      0.001083
      7.26494     13.72576     -0.43406        -0.002562     -0.003055      0.004863
      2.26246     27.75361      0.37526         0.000928     -0.002178      0.000023
      7.25359      7.22202      3.46216         0.000051      0.000594     -0.000166
     14.62605      2.83861      1.23341         0.002692      0.000266      0.000494
     14.64392     18.09052      1.80680         0.000621     -0.002743     -0.000894
     13.94878     16.86876      2.04308        -0.001159      0.000951      0.001468
     13.93122      4.06038      0.99641        -0.002496      0.000848     -0.002608
      4.42768     18.55881     -1.32837        -0.003940     -0.000389     -0.002875
      5.12099     17.33608     -1.09164         0.000103      0.000709      0.002350
      4.40621      2.39533      4.35369        -0.000284      0.000850      0.000997
      5.10055      3.61743      4.11692         0.002145     -0.000837     -0.001634
      0.63444     25.40989     -3.93203         0.000819      0.000465      0.001336
     18.42004     24.95043     -0.80542         0.004080      0.001028      0.001422
      8.89059     10.47096      1.51293         0.002438      0.001176     -0.001727
     10.15914     10.92267     -1.61560        -0.000921     -0.003330     -0.000532
      6.57505      2.84801      1.14258        -0.000654     -0.000270     -0.001624
     14.87994     15.15409     -0.75001         0.000897     -0.000562     -0.002063
     14.86125      5.77540      3.78972         0.001511      0.002311      0.000748
     13.69903      0.21333      4.69403        -0.002306      0.000215     -0.001059
     13.71118     20.71533     -1.65492        -0.000072      0.000424      0.001227
     12.47793     18.54637     -1.23490         0.001465      0.000540      0.000301
      2.95116     16.87895      1.95353         0.001616     -0.001165     -0.000031
      2.93210      4.07425      1.07393         0.001709      0.001197     -0.000722
     16.11804     17.32068     -1.16765        -0.001497      0.001708     -0.000538
      4.16519      6.24338      0.65394        -0.000391      0.000842      0.000070
      4.18458     14.70957      2.37277        -0.000088     -0.000759     -0.000902
      5.36462     20.27425      1.46259         0.001236     -0.000899      0.000138
      6.59625     18.10391      1.88264        -0.001927      0.001168     -0.000036
     12.46170      2.38074      4.27497         0.001141     -0.000885      0.000212
     16.09646      3.60772      4.20993        -0.002471      0.000683     -0.002383
      5.33938      0.67943      1.56192         0.001790      0.001893     -0.001506
     12.66332     13.10491     -1.76952        -0.002867      0.000136      0.000051
      6.38413      8.28967      1.67252         0.001419      0.002278     -0.000459
      8.81822     13.81699     -2.05963         0.002030     -0.000216     -0.001979
      0.71960     22.06403     -0.35858         0.002453      0.001567     -0.001042
      3.13259     27.60032     -4.08799        -0.003062     -0.000951     -0.000991
      8.80730      8.03495     -1.16825        -0.001660      0.002773     -0.002092
     18.33454     28.29812     -4.37589         0.000062     -0.000782     -0.000400
     15.92041     22.76065     -0.64298         0.001572      0.001578      0.000136
      0.70960     27.84441     -1.25123         0.000399     -0.000977      0.001635
     10.24212     13.35993      1.06969         0.002158     -0.001019      0.001622
     12.65765      7.82007      4.80020        -0.001778      0.000894      0.001186
     15.91506     27.13166     -0.95867         0.002783      0.000165     -0.001488
     10.22748      7.57740      1.95992         0.001936      0.001239     -0.002103
      6.39213     12.66087      1.35625         0.005310      0.000051     -0.002480
      3.14565     22.32278      2.48442        -0.001527      0.001610     -0.000800
     18.34797     22.51636     -3.48327        -0.001525      0.000985     -0.001079
     18.34143     26.64100     -3.04752         0.000434     -0.000837      0.000105
     17.55864     26.25918     -1.99258        -0.000480      0.001715      0.001524
     18.35076     23.25920      1.43876        -0.000918      0.000884     -0.000852
     10.23688     11.70280      2.39793         0.001560     -0.000171     -0.001505
     11.01364      9.60954     -0.42606         0.000073      0.002121     -0.003555
      1.49671     24.10312     -2.74164        -0.001086      0.001344     -0.001839
     11.02041     11.32125      3.45240        -0.001733      0.000137      0.000458
     10.22789      9.23184      0.62813         0.004265     -0.002342     -0.001718
      8.03507     11.78329      0.32564        -0.001730      0.000106      0.001079
      0.71262     23.72024     -1.68813         0.002248     -0.000779      0.000040
      1.49068     25.81211      1.13604         0.002129      0.002360     -0.000202
      8.03032      9.16202      2.70241        -0.000837     -0.001040      0.000704
     17.56548     23.63759      0.38448        -0.000772      0.001105     -0.002098
      0.70649     26.19021      0.08085         0.000691     -0.000644     -0.001422
      8.81407      8.78039      3.75662         0.001017      0.000608      0.001372
      8.81989     12.16159     -0.72902         0.000109     -0.002205     -0.000117
     16.01696      0.42004      1.69794        -0.000015      0.000679     -0.000376
     16.03157     20.51034      1.34133        -0.001400     -0.003621      0.001022
     12.55801     14.45006      2.50610        -0.001486     -0.003300     -0.001310
     12.54354      6.47986      0.52955         0.000100      0.001014      0.001600
      3.03956     20.97827     -1.79207         0.000161     -0.000523      0.000938
      6.50503     14.91397     -0.62585        -0.000623      0.002608     -0.000278
      3.02060     -0.02592      4.81981         0.000808      0.001555      0.000666
      6.48998      6.03610      3.65305        -0.000831      0.001081      0.000023
     15.23923     27.65273      1.31123        -0.000779      0.000613     -0.000159
     16.78492      1.25356      3.70296         0.000770     -0.000174      0.000759
     16.80191     19.67708     -0.66242         0.000753     -0.000799     -0.001246
     11.79341     16.19099     -1.74099        -0.002969     -0.000511      0.002599
     11.77488      4.73587      4.78063        -0.001169     -0.000196     -0.001012
      3.83265     21.80723      0.20547        -0.000467      0.001278      0.001480
     13.33929     13.62736      0.50095        -0.000638     -0.003371     -0.000092
     13.32922      7.30720      2.53067         0.000698     -0.001325      0.000121
      5.71721     13.17803      3.62795         0.002634     -0.001403      0.001852
      2.26244     19.23277      2.46267         0.000314     -0.001699     -0.002696
      2.24685      1.71905      0.56748         0.002125     -0.001032      0.001165
      7.26654      5.20114      1.65240        -0.001524     -0.001688      0.000633
     15.24433     22.24715     -2.91217         0.000679     -0.000300     -0.001130
      3.80981     28.11591     -1.81906        -0.000425     -0.001359      0.000164
      5.69774      7.77557     -0.60357        -0.000109      0.000153     -0.000552
      7.27887     15.74744      1.37675        -0.001338      0.000436      0.003240
 -----------------------------------------------------------------------------------
    total drift:                               -0.008392      0.029853     -0.013144


--------------------------------------------------------------------------------------------------------



  FREE ENERGIE OF THE ION-ELECTRON SYSTEM (eV)
  ---------------------------------------------------
  free  energy   TOTEN  =     -1161.92303586 eV

  energy  without entropy=    -1161.92303586  energy(sigma->0) =    -1161.92303586
 


--------------------------------------------------------------------------------------------------------


    POTLOK:  cpu time    0.1667: real time    0.1667


--------------------------------------------------------------------------------------------------------




--------------------------------------------------------------------------------------------------------


  
 reached required accuracy - stopping structural energy minimisation
 writing wavefunctions
     LOOP+:  cpu time  666.2918: real time  669.0546
    4ORBIT:  cpu time    0.0000: real time    0.0000

 total amount of memory used by VASP MPI-rank0   134692. kBytes
=======================================================================

   base      :      30000. kBytes
   nonlr-proj:       6636. kBytes
   fftplans  :      10550. kBytes
   grid      :      18126. kBytes
   one-center:        606. kBytes
   wavefun   :      68774. kBytes
 
  
  
 General timing and accounting informations for this job:
 ========================================================
  
                  Total CPU time used (sec):      770.898
                            User time (sec):      707.375
                          System time (sec):       63.523
                         Elapsed time (sec):      775.361
  
                   Maximum memory used (kb):      973652.
                   Average memory used (kb):           0.
  
                          Minor page faults:       421547
                          Major page faults:           10
                 Voluntary context switches:        13612
