       N       E                     dE             d eps       ncg     rms          rms(c)
DAV:   1     0.555465223568E+04    0.55547E+04   -0.27053E+05  4608   0.143E+03
DAV:   2    -0.270479891685E+03   -0.58251E+04   -0.55941E+04  6592   0.323E+02
DAV:   3    -0.125990594541E+04   -0.98943E+03   -0.98220E+03  5440   0.140E+02
DAV:   4    -0.129577834143E+04   -0.35872E+02   -0.35592E+02  6112   0.359E+01
DAV:   5    -0.129684310883E+04   -0.10648E+01   -0.10623E+01  6816   0.567E+00    0.868E+01
DAV:   6    -0.150925990503E+04   -0.21242E+03   -0.26518E+03  7040   0.932E+01    0.225E+02
DAV:   7    -0.141411403609E+04    0.95146E+02   -0.22051E+02  5280   0.313E+01    0.143E+02
DAV:   8    -0.115963403429E+04    0.25448E+03   -0.24797E+02  6464   0.918E+01    0.315E+01
DAV:   9    -0.117070615644E+04   -0.11072E+02   -0.11111E+02  6208   0.229E+01    0.232E+01
DAV:  10    -0.116590848728E+04    0.47977E+01   -0.38738E+01  6272   0.146E+01    0.147E+01
DAV:  11    -0.116878447657E+04   -0.28760E+01   -0.24670E+01  6464   0.154E+01    0.349E+01
DAV:  12    -0.116670372369E+04    0.20808E+01   -0.21632E+01  6592   0.170E+01    0.907E+00
DAV:  13    -0.116717782704E+04   -0.47410E+00   -0.18492E+00  6656   0.551E+00    0.444E+00
DAV:  14    -0.116738849004E+04   -0.21066E+00   -0.38581E-01  6208   0.260E+00    0.305E+00
DAV:  15    -0.116758641955E+04   -0.19793E+00   -0.19155E-01  6464   0.214E+00    0.188E+00
DAV:  16    -0.116775847682E+04   -0.17206E+00   -0.78371E-02  6560   0.117E+00    0.117E+00
DAV:  17    -0.116791529125E+04   -0.15681E+00   -0.45584E-02  6496   0.886E-01    0.845E-01
DAV:  18    -0.116811897659E+04   -0.20369E+00   -0.81116E-02  6848   0.122E+00    0.586E-01
DAV:  19    -0.116828527252E+04   -0.16630E+00   -0.10569E-01  6272   0.110E+00    0.487E-01
DAV:  20    -0.116841464871E+04   -0.12938E+00   -0.62355E-02  5952   0.593E-01    0.480E-01
DAV:  21    -0.116849929421E+04   -0.84646E-01   -0.11907E-02  5792   0.224E-01    0.417E-01
DAV:  22    -0.116858571604E+04   -0.86422E-01   -0.51362E-03  5824   0.175E-01    0.290E-01
DAV:  23    -0.116867891394E+04   -0.93198E-01   -0.76686E-03  5760   0.246E-01    0.277E-01
DAV:  24    -0.116872574827E+04   -0.46834E-01   -0.39237E-03  6208   0.193E-01    0.126E-01
DAV:  25    -0.116875176432E+04   -0.26016E-01   -0.27905E-03  5728   0.115E-01    0.723E-02
DAV:  26    -0.116876611111E+04   -0.14347E-01   -0.14011E-03  5600   0.776E-02    0.548E-02
DAV:  27    -0.116877087836E+04   -0.47672E-02   -0.43434E-04  6304   0.500E-02    0.381E-02
DAV:  28    -0.116877406340E+04   -0.31850E-02   -0.23823E-04  5600   0.355E-02    0.266E-02
DAV:  29    -0.116877600329E+04   -0.19399E-02   -0.16607E-04  5760   0.249E-02    0.209E-02
DAV:  30    -0.116877684922E+04   -0.84593E-03   -0.59663E-05  5568   0.157E-02    0.137E-02
DAV:  31    -0.116877735653E+04   -0.50731E-03   -0.22670E-05  5248   0.887E-03    0.893E-03
DAV:  32    -0.116877774935E+04   -0.39283E-03   -0.19581E-05  5184   0.797E-03    0.451E-03
DAV:  33    -0.116877797388E+04   -0.22453E-03   -0.95081E-06  5024   0.484E-03    0.263E-03
DAV:  34    -0.116877811836E+04   -0.14448E-03   -0.57559E-06  4672   0.368E-03    0.240E-03
DAV:  35    -0.116877818205E+04   -0.63692E-04   -0.16667E-06  4352   0.188E-03    0.226E-03
DAV:  36    -0.116877822797E+04   -0.45924E-04   -0.10284E-06  3936   0.145E-03    0.159E-03
DAV:  37    -0.116877825469E+04   -0.26721E-04   -0.41431E-07  3680   0.124E-03    0.102E-03
DAV:  38    -0.116877827530E+04   -0.20604E-04   -0.42075E-07  3744   0.118E-03    0.563E-04
DAV:  39    -0.116877828647E+04   -0.11173E-04   -0.21185E-07  3648   0.783E-04    0.475E-04
DAV:  40    -0.116877829182E+04   -0.53493E-05   -0.10093E-07  3552   0.534E-04    0.399E-04
DAV:  41    -0.116877829624E+04   -0.44212E-05   -0.84723E-08  3648   0.484E-04    0.293E-04
DAV:  42    -0.116877829909E+04   -0.28476E-05   -0.64019E-08  3424   0.439E-04    0.191E-04
DAV:  43    -0.116877830016E+04   -0.10692E-05   -0.30463E-08  3264   0.296E-04    0.145E-04
DAV:  44    -0.116877830070E+04   -0.53897E-06   -0.17611E-08  3200   0.204E-04
   1 F= -.11792085E+04 E0= -.11792067E+04  d E =-.117921E+04  mag=    -0.0000
