 vasp.6.0.8 29Jun18 (build Mar 14 2019 11:44:20) complex                        
  
 executed on             LinuxIFC date 2020.12.28  14:16:45
 running  128 mpi-ranks, with    1 threads/rank
 distrk:  each k-point on  128 cores,    1 groups
 distr:  one band on NCORES_PER_BAND=   4 cores,   32 groups


--------------------------------------------------------------------------------------------------------


 INCAR:
 POTCAR:    PAW_PBE C 08Apr2002                   
 POTCAR:    PAW_PBE Co 02Aug2007                  
 POTCAR:    PAW_PBE H 15Jun2001                   
 POTCAR:    PAW_PBE N 08Apr2002                   
 POTCAR:    PAW_PBE O 08Apr2002                   
 POTCAR:    PAW_PBE C 08Apr2002                   
   VRHFIN =C: s2p2                                                              
   LEXCH  = PE                                                                  
   EATOM  =   147.1560 eV,   10.8157 Ry                                         
                                                                                
   TITEL  = PAW_PBE C 08Apr2002                                                 
   LULTRA =        F    use ultrasoft PP ?                                      
   IUNSCR =        1    unscreen: 0-lin 1-nonlin 2-no                           
   RPACOR =    1.200    partial core radius                                     
   POMASS =   12.011; ZVAL   =    4.000    mass and valenz                      
   RCORE  =    1.500    outmost cutoff radius                                   
   RWIGS  =    1.630; RWIGS  =    0.863    wigner-seitz radius (au A)           
   ENMAX  =  400.000; ENMIN  =  300.000 eV                                      
   ICORE  =        2    local potential                                         
   LCOR   =        T    correct aug charges                                     
   LPAW   =        T    paw PP                                                  
   EAUG   =  644.873                                                            
   DEXC   =    0.000                                                            
   RMAX   =    1.529    core radius for proj-oper                               
   RAUG   =    1.300    factor for augmentation sphere                          
   RDEP   =    1.501    radius for radial grids                                 
   RDEPT  =    1.300    core radius for aug-charge                              
                                                                                
   Atomic configuration                                                         
    4 entries                                                                   
     n  l   j            E        occ.                                          
     1  0  0.50      -273.3789   2.0000                                         
     2  0  0.50       -13.7508   2.0000                                         
     2  1  0.50        -5.2854   2.0000                                         
     3  2  1.50        -5.4423   0.0000                                         
   Description                                                                  
     l       E           TYP  RCUT    TYP  RCUT                                 
     0    -13.7508458     23  1.200                                             
     0     -8.2022199     23  1.200                                             
     1     -5.2854383     23  1.500                                             
     1     34.0145650     23  1.500                                             
     2     -5.4423304      7  1.500                                             
  local pseudopotential read in
  partial core-charges read in
  partial kinetic energy density read in
  atomic valenz-charges read in
  non local Contribution for L=           0  read in
    real space projection operators read in
  non local Contribution for L=           0  read in
    real space projection operators read in
  non local Contribution for L=           1  read in
    real space projection operators read in
  non local Contribution for L=           1  read in
    real space projection operators read in
    PAW grid and wavefunctions read in
 
   number of l-projection  operators is LMAX  =           4
   number of lm-projection operators is LMMAX =           8
 
 POTCAR:    PAW_PBE Co 02Aug2007                  
   VRHFIN =Co: d8 s1                                                            
   LEXCH  = PE                                                                  
   EATOM  =   813.3670 eV,   59.7808 Ry                                         
                                                                                
   TITEL  = PAW_PBE Co 02Aug2007                                                
   LULTRA =        F    use ultrasoft PP ?                                      
   IUNSCR =        1    unscreen: 0-lin 1-nonlin 2-no                           
   RPACOR =    2.000    partial core radius                                     
   POMASS =   58.933; ZVAL   =    9.000    mass and valenz                      
   RCORE  =    2.300    outmost cutoff radius                                   
   RWIGS  =    2.460; RWIGS  =    1.302    wigner-seitz radius (au A)           
   ENMAX  =  267.968; ENMIN  =  200.976 eV                                      
   RCLOC  =    1.203    cutoff for local pot                                    
   LCOR   =        T    correct aug charges                                     
   LPAW   =        T    paw PP                                                  
   EAUG   =  477.818                                                            
   DEXC   =    0.000                                                            
   RMAX   =    2.360    core radius for proj-oper                               
   RAUG   =    1.300    factor for augmentation sphere                          
   RDEP   =    2.393    radius for radial grids                                 
   RDEPT  =    1.864    core radius for aug-charge                              
                                                                                
   Atomic configuration                                                         
    9 entries                                                                   
     n  l   j            E        occ.                                          
     1  0  0.50     -7587.6674   2.0000                                         
     2  0  0.50      -893.6084   2.0000                                         
     2  1  1.50      -764.5805   6.0000                                         
     3  0  0.50       -97.5973   2.0000                                         
     3  1  1.50       -60.9648   6.0000                                         
     3  2  2.50        -4.2382   8.0000                                         
     4  0  0.50        -4.3746   1.0000                                         
     4  1  1.50        -4.0817   0.0000                                         
     4  3  2.50        -1.3606   0.0000                                         
   Description                                                                  
     l       E           TYP  RCUT    TYP  RCUT                                 
     2     -4.2382362     23  2.300                                             
     2     -5.5988188     23  2.300                                             
     0     -4.3745797     23  2.300                                             
     0      5.7660125     23  2.300                                             
     1     -2.7211652     23  2.300                                             
     1     16.9860234     23  2.300                                             
  local pseudopotential read in
  partial core-charges read in
  partial kinetic energy density read in
  atomic valenz-charges read in
  non local Contribution for L=           2  read in
    real space projection operators read in
  non local Contribution for L=           2  read in
    real space projection operators read in
  non local Contribution for L=           0  read in
    real space projection operators read in
  non local Contribution for L=           0  read in
    real space projection operators read in
  non local Contribution for L=           1  read in
    real space projection operators read in
  non local Contribution for L=           1  read in
    real space projection operators read in
    PAW grid and wavefunctions read in
 
   number of l-projection  operators is LMAX  =           6
   number of lm-projection operators is LMMAX =          18
 
 POTCAR:    PAW_PBE H 15Jun2001                   
   VRHFIN =H: ultrasoft test                                                    
   LEXCH  = PE                                                                  
   EATOM  =    12.4884 eV,    0.9179 Ry                                         
                                                                                
   TITEL  = PAW_PBE H 15Jun2001                                                 
   LULTRA =        F    use ultrasoft PP ?                                      
   IUNSCR =        0    unscreen: 0-lin 1-nonlin 2-no                           
   RPACOR =    0.000    partial core radius                                     
   POMASS =    1.000; ZVAL   =    1.000    mass and valenz                      
   RCORE  =    1.100    outmost cutoff radius                                   
   RWIGS  =    0.700; RWIGS  =    0.370    wigner-seitz radius (au A)           
   ENMAX  =  250.000; ENMIN  =  200.000 eV                                      
   RCLOC  =    0.701    cutoff for local pot                                    
   LCOR   =        T    correct aug charges                                     
   LPAW   =        T    paw PP                                                  
   EAUG   =  400.000                                                            
   RMAX   =    1.123    core radius for proj-oper                               
   RAUG   =    1.200    factor for augmentation sphere                          
   RDEP   =    1.112    radius for radial grids                                 
   RDEPT  =    0.926    core radius for aug-charge                              
                                                                                
   Atomic configuration                                                         
    2 entries                                                                   
     n  l   j            E        occ.                                          
     1  0  0.50        -6.4927   1.0000                                         
     2  1  0.50        -3.4015   0.0000                                         
   Description                                                                  
     l       E           TYP  RCUT    TYP  RCUT                                 
     0     -6.4927494     23  1.100                                             
     0      6.8029130     23  1.100                                             
     1     -4.0817478     23  1.100                                             
  local pseudopotential read in
  atomic valenz-charges read in
  non local Contribution for L=           0  read in
    real space projection operators read in
  non local Contribution for L=           0  read in
    real space projection operators read in
  non local Contribution for L=           1  read in
    real space projection operators read in
    PAW grid and wavefunctions read in
 
   number of l-projection  operators is LMAX  =           3
   number of lm-projection operators is LMMAX =           5
 
 POTCAR:    PAW_PBE N 08Apr2002                   
   VRHFIN =N: s2p3                                                              
   LEXCH  = PE                                                                  
   EATOM  =   264.5486 eV,   19.4438 Ry                                         
                                                                                
   TITEL  = PAW_PBE N 08Apr2002                                                 
   LULTRA =        F    use ultrasoft PP ?                                      
   IUNSCR =        1    unscreen: 0-lin 1-nonlin 2-no                           
   RPACOR =    1.200    partial core radius                                     
   POMASS =   14.001; ZVAL   =    5.000    mass and valenz                      
   RCORE  =    1.500    outmost cutoff radius                                   
   RWIGS  =    1.400; RWIGS  =    0.741    wigner-seitz radius (au A)           
   ENMAX  =  400.000; ENMIN  =  300.000 eV                                      
   ICORE  =        2    local potential                                         
   LCOR   =        T    correct aug charges                                     
   LPAW   =        T    paw PP                                                  
   EAUG   =  627.112                                                            
   DEXC   =    0.000                                                            
   RMAX   =    1.529    core radius for proj-oper                               
   RAUG   =    1.300    factor for augmentation sphere                          
   RDEP   =    1.514    radius for radial grids                                 
   RDEPT  =    1.338    core radius for aug-charge                              
                                                                                
   Atomic configuration                                                         
    4 entries                                                                   
     n  l   j            E        occ.                                          
     1  0  0.50      -384.7179   2.0000                                         
     2  0  0.50       -18.5828   2.0000                                         
     2  1  0.50        -7.0898   3.0000                                         
     3  2  1.50        -6.8029   0.0000                                         
   Description                                                                  
     l       E           TYP  RCUT    TYP  RCUT                                 
     0    -18.5828119     23  1.200                                             
     0    -13.5018863     23  1.200                                             
     1     -7.0897853     23  1.500                                             
     1      9.5240782     23  1.500                                             
     2     -6.8029130      7  1.500                                             
  local pseudopotential read in
  partial core-charges read in
  partial kinetic energy density read in
  atomic valenz-charges read in
  non local Contribution for L=           0  read in
    real space projection operators read in
  non local Contribution for L=           0  read in
    real space projection operators read in
  non local Contribution for L=           1  read in
    real space projection operators read in
  non local Contribution for L=           1  read in
    real space projection operators read in
    PAW grid and wavefunctions read in
 
   number of l-projection  operators is LMAX  =           4
   number of lm-projection operators is LMMAX =           8
 
 POTCAR:    PAW_PBE O 08Apr2002                   
   VRHFIN =O: s2p4                                                              
   LEXCH  = PE                                                                  
   EATOM  =   432.3788 eV,   31.7789 Ry                                         
                                                                                
   TITEL  = PAW_PBE O 08Apr2002                                                 
   LULTRA =        F    use ultrasoft PP ?                                      
   IUNSCR =        1    unscreen: 0-lin 1-nonlin 2-no                           
   RPACOR =    1.200    partial core radius                                     
   POMASS =   16.000; ZVAL   =    6.000    mass and valenz                      
   RCORE  =    1.520    outmost cutoff radius                                   
   RWIGS  =    1.550; RWIGS  =    0.820    wigner-seitz radius (au A)           
   ENMAX  =  400.000; ENMIN  =  300.000 eV                                      
   ICORE  =        2    local potential                                         
   LCOR   =        T    correct aug charges                                     
   LPAW   =        T    paw PP                                                  
   EAUG   =  605.392                                                            
   DEXC   =    0.000                                                            
   RMAX   =    1.553    core radius for proj-oper                               
   RAUG   =    1.300    factor for augmentation sphere                          
   RDEP   =    1.550    radius for radial grids                                 
   RDEPT  =    1.329    core radius for aug-charge                              
                                                                                
   Atomic configuration                                                         
    4 entries                                                                   
     n  l   j            E        occ.                                          
     1  0  0.50      -514.6923   2.0000                                         
     2  0  0.50       -23.9615   2.0000                                         
     2  1  0.50        -9.0305   4.0000                                         
     3  2  1.50        -9.5241   0.0000                                         
   Description                                                                  
     l       E           TYP  RCUT    TYP  RCUT                                 
     0    -23.9615318     23  1.200                                             
     0     -9.5240782     23  1.200                                             
     1     -9.0304911     23  1.520                                             
     1      8.1634956     23  1.520                                             
     2     -9.5240782      7  1.500                                             
  local pseudopotential read in
  partial core-charges read in
  partial kinetic energy density read in
  kinetic energy density of atom read in
  atomic valenz-charges read in
  non local Contribution for L=           0  read in
    real space projection operators read in
  non local Contribution for L=           0  read in
    real space projection operators read in
  non local Contribution for L=           1  read in
    real space projection operators read in
  non local Contribution for L=           1  read in
    real space projection operators read in
    PAW grid and wavefunctions read in
 
   number of l-projection  operators is LMAX  =           4
   number of lm-projection operators is LMMAX =           8
 
 Optimization of the real space projectors (new method)

 maximal supplied QI-value         = 25.13
 optimisation between [QCUT,QGAM] = [ 12.32, 24.88] = [ 42.47,173.37] Ry 
 Optimized for a Real-space Cutoff    1.06 Angstroem

   l    n(q)    QCUT    max X(q) W(low)/X(q) W(high)/X(q)  e(spline) 
   0      8    12.315   115.676    0.34E-03    0.18E-03    0.23E-06
   0      8    12.315    87.132    0.34E-03    0.18E-03    0.22E-06
   1      7    12.315     4.429    0.45E-03    0.12E-03    0.18E-06
   1      7    12.315     2.733    0.35E-03    0.97E-04    0.15E-06
 Optimization of the real space projectors (new method)

 maximal supplied QI-value         = 16.25
 optimisation between [QCUT,QGAM] = [ 12.51, 25.03] = [ 43.85,175.40] Ry 
 Optimized for a Real-space Cutoff    1.31 Angstroem

   l    n(q)    QCUT    max X(q) W(low)/X(q) W(high)/X(q)  e(spline) 
   2      9    12.514    65.824    0.30E-03    0.46E-03    0.43E-06
   2      9    12.514    61.429    0.31E-03    0.46E-03    0.44E-06
   0     10    12.514    56.174    0.90E-04    0.33E-03    0.30E-06
   0     10    12.514    31.263    0.81E-04    0.30E-03    0.28E-06
   1      9    12.514    19.828    0.38E-03    0.65E-04    0.24E-06
   1      9    12.514    15.139    0.32E-03    0.60E-04    0.20E-06
 Optimization of the real space projectors (new method)

 maximal supplied QI-value         = 34.20
 optimisation between [QCUT,QGAM] = [ 12.31, 24.97] = [ 42.46,174.58] Ry 
 Optimized for a Real-space Cutoff    1.00 Angstroem

   l    n(q)    QCUT    max X(q) W(low)/X(q) W(high)/X(q)  e(spline) 
   0      7    12.313    19.460    0.14E-03    0.42E-03    0.16E-06
   0      7    12.313    12.209    0.12E-03    0.40E-03    0.16E-06
   1      7    12.313     4.655    0.33E-03    0.59E-03    0.89E-07
 Optimization of the real space projectors (new method)

 maximal supplied QI-value         = 25.13
 optimisation between [QCUT,QGAM] = [ 12.32, 24.88] = [ 42.47,173.37] Ry 
 Optimized for a Real-space Cutoff    1.20 Angstroem

   l    n(q)    QCUT    max X(q) W(low)/X(q) W(high)/X(q)  e(spline) 
   0      9    12.315    79.467    0.14E-03    0.22E-04    0.37E-06
   0      9    12.315    66.151    0.14E-03    0.23E-04    0.36E-06
   1      8    12.315    22.077    0.30E-03    0.54E-03    0.45E-06
   1      8    12.315    15.894    0.30E-03    0.55E-03    0.45E-06
 Optimization of the real space projectors (new method)

 maximal supplied QI-value         = 24.76
 optimisation between [QCUT,QGAM] = [ 12.38, 25.00] = [ 42.90,175.06] Ry 
 Optimized for a Real-space Cutoff    1.13 Angstroem

   l    n(q)    QCUT    max X(q) W(low)/X(q) W(high)/X(q)  e(spline) 
   0      8    12.378    20.381    0.16E-03    0.54E-05    0.27E-06
   0      8    12.378    15.268    0.17E-03    0.61E-05    0.29E-06
   1      8    12.378     5.964    0.38E-03    0.23E-03    0.28E-06
   1      8    12.378     5.382    0.33E-03    0.20E-03    0.25E-06
  PAW_PBE C 08Apr2002                   :
 energy of atom  1       EATOM= -147.1560
 kinetic energy error for atom=    0.0057 (will be added to EATOM!!)
  PAW_PBE Co 02Aug2007                  :
 energy of atom  2       EATOM= -813.3670
 kinetic energy error for atom=    0.0018 (will be added to EATOM!!)
  PAW_PBE H 15Jun2001                   :
 energy of atom  3       EATOM=  -12.4884
 kinetic energy error for atom=    0.0004 (will be added to EATOM!!)
  PAW_PBE N 08Apr2002                   :
 energy of atom  4       EATOM= -264.5486
 kinetic energy error for atom=    0.0103 (will be added to EATOM!!)
  PAW_PBE O 08Apr2002                   :
 energy of atom  5       EATOM= -432.3788
 kinetic energy error for atom=    0.0168 (will be added to EATOM!!)
 
 
 POSCAR: CoH_exp5	
  positions in direct lattice
  velocities in cartesian coordinates
 exchange correlation table for  LEXCH =        8
   RHO(1)=    0.500       N(1)  =     2000
   RHO(2)=  100.500       N(2)  =     4000
 


--------------------------------------------------------------------------------------------------------


 ion  position               nearest neighbor table
   1  0.897  0.967  0.114- 107 1.09 117 1.35  65 1.40
   2  0.936  0.984  0.397- 112 1.08 118 1.35  65 1.40
   3  0.897  0.813  0.938- 116 1.09 119 1.35  66 1.40
   4  0.603  0.467  0.614- 110 1.09 120 1.35  67 1.40
   5  0.564  0.297  0.155- 111 1.08 121 1.35  68 1.40
   6  0.064  0.796  0.155- 115 1.08 122 1.35  69 1.40
   7  0.564  0.484  0.897- 101 1.08 123 1.35  67 1.40
   8  0.603  0.313  0.438- 113 1.09 124 1.35  68 1.40
   9  0.436  0.484  0.397- 114 1.08 125 1.35  70 1.40
  10  0.103  0.813  0.439- 104 1.09 126 1.35  69 1.40
  11  0.064  0.984  0.898- 105 1.08 127 1.35  71 1.40
  12  0.436  0.297  0.655- 102 1.08 128 1.35  72 1.40
  13  0.936  0.797  0.655- 108 1.08 129 1.35  66 1.40
  14  0.103  0.967  0.614- 109 1.09 130 1.35  71 1.40
  15  0.397  0.313  0.938- 106 1.09 131 1.35  72 1.40
  16  0.397  0.467  0.114- 103 1.09 132 1.35  70 1.40
  17  0.822  0.032  0.455- 141 1.23 133 1.42  33 1.48
  18  0.842  0.084  0.073- 142 1.23 133 1.42  34 1.48
  19  0.842  0.696  0.981- 143 1.23 134 1.42  35 1.48
  20  0.658  0.584  0.573- 144 1.23 135 1.42  36 1.48
  21  0.658  0.196  0.480- 145 1.23 136 1.42  37 1.48
  22  0.178  0.748  0.099- 146 1.23 137 1.42  38 1.48
  23  0.678  0.532  0.954- 147 1.23 135 1.42  39 1.48
  24  0.678  0.248  0.099- 148 1.23 136 1.42  40 1.48
  25  0.322  0.531  0.454- 149 1.23 138 1.42  41 1.48
  26  0.157  0.696  0.480- 150 1.23 137 1.42  42 1.48
  27  0.158  0.084  0.573- 151 1.23 139 1.42  43 1.48
  28  0.342  0.196  0.980- 152 1.23 140 1.42  44 1.48
  29  0.822  0.748  0.599- 153 1.23 134 1.42  45 1.48
  30  0.178  0.032  0.955- 154 1.23 139 1.42  46 1.48
  31  0.322  0.248  0.599- 155 1.23 140 1.42  47 1.48
  32  0.342  0.584  0.073- 156 1.23 138 1.42  48 1.48
  33  0.779  0.074  0.456-  49 1.39  73 1.41  17 1.48
  34  0.801  0.126  0.085-  50 1.39  73 1.42  18 1.48
  35  0.801  0.654  0.969-  51 1.39  74 1.42  19 1.48
  36  0.699  0.626  0.585-  52 1.39  75 1.42  20 1.48
  37  0.699  0.154  0.469-  53 1.39  76 1.42  21 1.48
  38  0.220  0.706  0.098-  54 1.39  77 1.42  22 1.48
  39  0.721  0.574  0.956-  55 1.39  75 1.42  23 1.48
  40  0.721  0.206  0.097-  56 1.39  76 1.42  24 1.48
  41  0.279  0.574  0.456-  57 1.39  78 1.42  25 1.48
  42  0.199  0.654  0.469-  58 1.39  77 1.42  26 1.48
  43  0.199  0.126  0.585-  59 1.39  79 1.42  27 1.48
  44  0.301  0.154  0.969-  60 1.39  80 1.42  28 1.48
  45  0.779  0.706  0.597-  61 1.39  74 1.42  29 1.48
  46  0.221  0.074  0.956-  62 1.39  79 1.42  30 1.48
  47  0.279  0.206  0.597-  63 1.39  80 1.42  31 1.48
  48  0.300  0.626  0.085-  64 1.39  78 1.42  32 1.48
  49  0.749  0.069  0.639-  88 1.09  33 1.39  53 1.40
  50  0.791  0.172  0.908-  99 1.09  34 1.39  56 1.40
  51  0.791  0.608  0.145-  93 1.09  35 1.39  55 1.40
  52  0.709  0.672  0.408-  90 1.09  36 1.39  61 1.40
  53  0.709  0.109  0.645-  98 1.09  37 1.39  49 1.40
  54  0.251  0.712  0.915-  96 1.09  38 1.39  64 1.40
  55  0.751  0.569  0.139-  86 1.09  39 1.39  51 1.40
  56  0.751  0.212  0.915-  87 1.09  40 1.39  50 1.40
  57  0.248  0.568  0.639-  95 1.09  41 1.39  58 1.40
  58  0.208  0.608  0.645-  91 1.09  42 1.39  57 1.40
  59  0.209  0.172  0.408-  92 1.09  43 1.39  63 1.40
  60  0.291  0.108  0.145-  85 1.09  44 1.39  62 1.40
  61  0.749  0.712  0.415-  89 1.09  45 1.39  52 1.40
  62  0.251  0.069  0.139- 100 1.09  46 1.39  60 1.40
  63  0.249  0.212  0.414-  94 1.09  47 1.39  59 1.40
  64  0.291  0.672  0.908-  97 1.09  48 1.39  54 1.40
  65  0.892  0.999  0.256-   2 1.40   1 1.40 133 1.42
  66  0.892  0.781  0.797-  13 1.40   3 1.40 134 1.42
  67  0.608  0.499  0.756-   7 1.40   4 1.40 135 1.42
  68  0.608  0.281  0.297-   5 1.40   8 1.40 136 1.42
  69  0.108  0.781  0.297-   6 1.40  10 1.40 137 1.42
  70  0.392  0.499  0.256-   9 1.40  16 1.40 138 1.42
  71  0.108  0.999  0.756-  11 1.40  14 1.40 139 1.42
  72  0.392  0.281  0.796-  12 1.40  15 1.40 140 1.42
  73  0.770  0.120  0.274-  33 1.41  34 1.42  76 1.43
  74  0.770  0.660  0.780-  35 1.42  45 1.42  75 1.43
  75  0.730  0.620  0.774-  39 1.42  36 1.42  74 1.43
  76  0.730  0.160  0.280-  37 1.42  40 1.42  73 1.43
  77  0.229  0.660  0.280-  42 1.42  38 1.42  78 1.43
  78  0.270  0.620  0.273-  41 1.42  48 1.42  77 1.43
  79  0.230  0.120  0.774-  43 1.42  46 1.42  80 1.43
  80  0.270  0.160  0.780-  44 1.42  47 1.42  79 1.43
  81  0.984  0.890  0.026- 119 1.95 117 1.95 127 1.96 122 1.96
  82  0.016  0.890  0.526- 126 1.95 130 1.95 129 1.96 118 1.96
  83  0.516  0.390  0.526- 124 1.95 120 1.95 128 1.96 125 1.96
  84  0.484  0.390  0.026- 132 1.95 131 1.95 121 1.96 123 1.96
  85  0.316  0.105  0.288-  60 1.09
  86  0.743  0.533  0.277-  55 1.09
  87  0.744  0.248  0.776-  56 1.09
  88  0.757  0.033  0.777-  49 1.09
  89  0.756  0.747  0.276-  61 1.09
  90  0.685  0.676  0.265-  52 1.09
  91  0.184  0.604  0.788-  58 1.09
  92  0.185  0.176  0.265-  59 1.09
  93  0.815  0.605  0.289-  51 1.09
  94  0.256  0.247  0.276-  63 1.09
  95  0.256  0.532  0.777-  57 1.09
  96  0.243  0.747  0.777-  54 1.09
  97  0.315  0.675  0.765-  64 1.09
  98  0.685  0.105  0.788-  53 1.09
  99  0.815  0.176  0.765-  50 1.09
 100  0.244  0.033  0.277-  62 1.09
 101  0.553  0.498  0.034-   7 1.08
 102  0.447  0.283  0.518-  12 1.08
 103  0.372  0.467  0.976-  16 1.09
 104  0.127  0.813  0.577-  10 1.09
 105  0.053  0.998  0.034-  11 1.08
 106  0.373  0.313  0.076-  15 1.09
 107  0.872  0.967  0.976-   1 1.09
 108  0.947  0.783  0.519-  13 1.08
 109  0.128  0.967  0.476-  14 1.09
 110  0.627  0.468  0.476-   4 1.09
 111  0.553  0.283  0.018-   5 1.08
 112  0.947  0.998  0.534-   2 1.08
 113  0.628  0.313  0.577-   8 1.09
 114  0.447  0.497  0.534-   9 1.08
 115  0.053  0.783  0.019-   6 1.08
 116  0.872  0.813  0.077-   3 1.09
 117  0.941  0.934  0.170-   1 1.35 118 1.37  81 1.95
 118  0.965  0.944  0.343-   2 1.35 117 1.37  82 1.96
 119  0.941  0.846  0.882-   3 1.35 129 1.37  81 1.95
 120  0.559  0.434  0.670-   4 1.35 123 1.37  83 1.95
 121  0.535  0.336  0.209-   5 1.35 124 1.37  84 1.96
 122  0.035  0.836  0.209-   6 1.35 126 1.37  81 1.96
 123  0.535  0.444  0.843-   7 1.35 120 1.37  84 1.96
 124  0.559  0.346  0.382-   8 1.35 121 1.37  83 1.95
 125  0.465  0.444  0.343-   9 1.35 132 1.37  83 1.96
 126  0.059  0.846  0.382-  10 1.35 122 1.37  82 1.95
 127  0.035  0.944  0.843-  11 1.35 130 1.37  81 1.96
 128  0.465  0.336  0.709-  12 1.35 131 1.37  83 1.96
 129  0.965  0.836  0.709-  13 1.35 119 1.37  82 1.96
 130  0.059  0.934  0.670-  14 1.35 127 1.37  82 1.95
 131  0.441  0.346  0.882-  15 1.35 128 1.37  84 1.95
 132  0.441  0.434  0.170-  16 1.35 125 1.37  84 1.95
 133  0.851  0.039  0.261-  18 1.42  17 1.42  65 1.42
 134  0.851  0.741  0.793-  19 1.42  29 1.42  66 1.42
 135  0.649  0.539  0.761-  20 1.42  23 1.42  67 1.42
 136  0.649  0.241  0.292-  21 1.42  24 1.42  68 1.42
 137  0.149  0.741  0.293-  26 1.42  22 1.42  69 1.42
 138  0.351  0.539  0.260-  32 1.42  25 1.42  70 1.42
 139  0.149  0.039  0.761-  27 1.42  30 1.42  71 1.42
 140  0.351  0.241  0.792-  28 1.42  31 1.42  72 1.42
 141  0.832  0.992  0.611-  17 1.23
 142  0.868  0.087  0.909-  18 1.23
 143  0.868  0.693  0.144-  19 1.23
 144  0.632  0.587  0.409-  20 1.23
 145  0.632  0.194  0.644-  21 1.23
 146  0.168  0.788  0.942-  22 1.23
 147  0.668  0.492  0.111-  23 1.23
 148  0.668  0.288  0.942-  24 1.23
 149  0.331  0.492  0.611-  25 1.23
 150  0.132  0.693  0.644-  26 1.23
 151  0.132  0.087  0.409-  27 1.23
 152  0.368  0.193  0.143-  28 1.23
 153  0.832  0.788  0.442-  29 1.23
 154  0.168  0.992  0.112-  30 1.23
 155  0.332  0.288  0.442-  31 1.23
 156  0.367  0.586  0.909-  32 1.23
 

IMPORTANT INFORMATION: All symmetrisations will be switched off!
NOSYMM: (Re-)initialisation of all symmetry stuff for point group C_1.


----------------------------------------------------------------------------------------

                                     Primitive cell                                     

  volume of cell :    3841.6732

  direct lattice vectors                    reciprocal lattice vectors
    24.439976617  0.000877532 -0.005894632     0.040916571 -0.000003260  0.000008087
     0.001070248 24.613379415  4.505679137    -0.000002639  0.041500026 -0.004761964
    -0.001229701  0.748523938  6.523310079     0.000038796 -0.028664254  0.156585524

  length of vectors
    24.439977343 25.022381818  6.566114832     0.040916572  0.041772341  0.159187523

  position of ions in fractional coordinates (direct lattice)
     0.896886284  0.967336417  0.114129080
     0.936022260  0.983768681  0.397461070
     0.896898532  0.813058909  0.938442913
     0.603023381  0.467362231  0.613802442
     0.564087326  0.296603746  0.154879934
     0.063852051  0.796438467  0.155336440
     0.563986486  0.483782479  0.897187424
     0.603083416  0.313108838  0.438284204
     0.435671561  0.483577698  0.397065363
     0.102925540  0.812840233  0.438781727
     0.064023720  0.983703704  0.897571646
     0.436008917  0.296507883  0.654729411
     0.935940580  0.796524856  0.655292212
     0.103121991  0.967210557  0.614419923
     0.396997385  0.312968871  0.938079592
     0.396655484  0.467026034  0.113778157
     0.822044842  0.031953970  0.454500792
     0.842179095  0.083856365  0.072750125
     0.842245679  0.696364004  0.980584437
     0.657802790  0.583846541  0.572518009
     0.657806522  0.196437240  0.480433479
     0.177835517  0.748159758  0.099171538
     0.677970865  0.531937762  0.954316512
     0.678099666  0.248420316  0.098849456
     0.321529256  0.531475663  0.453965123
     0.157412707  0.696035416  0.480485633
     0.157788679  0.083764411  0.572960156
     0.342447967  0.196246156  0.980065640
     0.821921030  0.748353832  0.598951368
     0.178038042  0.031864448  0.954655638
     0.321974202  0.248266114  0.598588985
     0.341783699  0.583529031  0.072509943
     0.779466865  0.074049940  0.456116779
     0.800680158  0.126073287  0.084759741
     0.800642947  0.654200088  0.968781647
     0.699322229  0.626043925  0.584602108
     0.699388722  0.154250512  0.468690735
     0.220360594  0.706014676  0.097591763
     0.720551323  0.574025774  0.956029563
     0.720673122  0.206308857  0.097430882
     0.278993421  0.573602853  0.455741407
     0.199006100  0.653857993  0.468683013
     0.199317577  0.125965966  0.584834961
     0.300766455  0.154125885  0.968550393
     0.779342696  0.706253970  0.597445137
     0.220604833  0.073977017  0.956235425
     0.279384951  0.206160109  0.597265729
     0.300289064  0.625742487  0.084590485
     0.748671386  0.068597792  0.638973637
     0.791316871  0.171836109  0.908284594
     0.791248746  0.608459279  0.145317962
     0.708676779  0.671804563  0.408142719
     0.708780754  0.108502081  0.645234495
     0.251167074  0.711508645  0.914744465
     0.751355322  0.568566862  0.138968441
     0.751476181  0.211772508  0.914607959
     0.248201354  0.568124338  0.638633807
     0.208343336  0.608046656  0.645056526
     0.208664289  0.171694393  0.408251896
     0.291381611  0.108413598  0.145197355
     0.748528968  0.711722534  0.414554632
     0.251448243  0.068537676  0.139062355
     0.248544622  0.211601470  0.414454540
     0.290976411  0.671559314  0.908263783
     0.892074986  0.999460892  0.256172989
     0.892084173  0.780807298  0.796864987
     0.607898564  0.499472696  0.755884625
     0.607945350  0.280889684  0.296608957
     0.107700286  0.780625549  0.297055700
     0.391707911  0.499137948  0.255804323
     0.107961624  0.999356375  0.756385252
     0.392169295  0.280755331  0.796352953
     0.770278211  0.119892284  0.273588168
     0.770182949  0.660404809  0.779969166
     0.729735985  0.619861676  0.773511777
     0.729834739  0.160446489  0.279951405
     0.229472886  0.660098791  0.279964318
     0.269871211  0.619522131  0.273411521
     0.229767902  0.119798259  0.773636160
     0.270245084  0.160329512  0.779882568
     0.984307370  0.890195622  0.026149926
     0.015636271  0.890131242  0.526283007
     0.515599302  0.390212522  0.525764365
     0.484337809  0.390188288  0.025735678
     0.315518867  0.104547634  0.288346144
     0.743461325  0.532864471  0.277157310
     0.743609411  0.247502998  0.776462174
     0.756564102  0.032892816  0.777186062
     0.756397223  0.747447868  0.276436508
     0.684596698  0.675644599  0.264878970
     0.184252212  0.604152482  0.788258903
     0.184565162  0.175521437  0.265054170
     0.815349823  0.604581652  0.288551909
     0.256410405  0.247309657  0.276275279
     0.256052156  0.532361515  0.776686641
     0.243330866  0.747285986  0.776738873
     0.315069957  0.675439413  0.765086911
     0.684688438  0.104633092  0.788409861
     0.815386118  0.175663063  0.765089402
     0.243573716  0.032850030  0.277334938
     0.552910386  0.497569511  0.033769685
     0.447083162  0.282693212  0.518203845
     0.372175833  0.467090370  0.975548536
     0.127396740  0.812690785  0.577120978
     0.052911678  0.997543795  0.033988535
     0.372557282  0.312833046  0.076396586
     0.872400029  0.967483926  0.975834793
     0.947027794  0.782664778  0.518879571
     0.127599279  0.967339305  0.476198361
     0.627488086  0.467507051  0.475538561
     0.553037314  0.282762701  0.018365831
     0.947143328  0.997586558  0.533956860
     0.627525951  0.313015372  0.576621511
     0.446734683  0.497439912  0.533512955
     0.052737059  0.782624468  0.018810458
     0.872436167  0.812969370  0.076650807
     0.941099168  0.934025907  0.170200980
     0.965332754  0.944386447  0.343053142
     0.941026959  0.846455865  0.881906626
     0.558809764  0.434067260  0.669838919
     0.534791027  0.336080444  0.208719476
     0.034630838  0.835950146  0.209270913
     0.534636749  0.444428708  0.842725258
     0.558932509  0.346486989  0.381644182
     0.465122141  0.444286712  0.342673953
     0.058826349  0.846299035  0.382204373
     0.034697226  0.944323592  0.843191171
     0.465269243  0.335993816  0.708697276
     0.965195455  0.836031528  0.709141694
     0.058901786  0.933926038  0.670431777
     0.441120505  0.346370385  0.881584237
     0.440959554  0.433844799  0.169851255
     0.850982959  0.039391623  0.260765618
     0.850987996  0.740853637  0.792538604
     0.649006291  0.539384741  0.760522278
     0.649057786  0.240938731  0.292383461
     0.148767770  0.740638275  0.292667077
     0.350543191  0.539004103  0.260358859
     0.149045229  0.039296450  0.760959712
     0.351082569  0.240784366  0.792074715
     0.832059424  0.992346477  0.611383734
     0.867814918  0.086670708  0.909001286
     0.867992712  0.693493147  0.144214142
     0.632149069  0.586662371  0.408726504
     0.632077809  0.193576572  0.644006913
     0.167963028  0.787846923  0.942374436
     0.667967410  0.492340025  0.111201318
     0.668168396  0.288042298  0.941901202
     0.331482344  0.491807682  0.610714757
     0.131563748  0.693069390  0.643878398
     0.132090849  0.086583381  0.409267186
     0.368358083  0.193300984  0.143386423
     0.831833890  0.787981474  0.442046901
     0.168086473  0.992247417  0.111539275
     0.331864383  0.287883925  0.441615983
     0.367451524  0.586387351  0.908803222

  ion indices of the primitive-cell ions
   primitive index   ion index
                 1           1
                 2           2
                 3           3
                 4           4
                 5           5
                 6           6
                 7           7
                 8           8
                 9           9
                10          10
                11          11
                12          12
                13          13
                14          14
                15          15
                16          16
                17          17
                18          18
                19          19
                20          20
                21          21
                22          22
                23          23
                24          24
                25          25
                26          26
                27          27
                28          28
                29          29
                30          30
                31          31
                32          32
                33          33
                34          34
                35          35
                36          36
                37          37
                38          38
                39          39
                40          40
                41          41
                42          42
                43          43
                44          44
                45          45
                46          46
                47          47
                48          48
                49          49
                50          50
                51          51
                52          52
                53          53
                54          54
                55          55
                56          56
                57          57
                58          58
                59          59
                60          60
                61          61
                62          62
                63          63
                64          64
                65          65
                66          66
                67          67
                68          68
                69          69
                70          70
                71          71
                72          72
                73          73
                74          74
                75          75
                76          76
                77          77
                78          78
                79          79
                80          80
                81          81
                82          82
                83          83
                84          84
                85          85
                86          86
                87          87
                88          88
                89          89
                90          90
                91          91
                92          92
                93          93
                94          94
                95          95
                96          96
                97          97
                98          98
                99          99
               100         100
               101         101
               102         102
               103         103
               104         104
               105         105
               106         106
               107         107
               108         108
               109         109
               110         110
               111         111
               112         112
               113         113
               114         114
               115         115
               116         116
               117         117
               118         118
               119         119
               120         120
               121         121
               122         122
               123         123
               124         124
               125         125
               126         126
               127         127
               128         128
               129         129
               130         130
               131         131
               132         132
               133         133
               134         134
               135         135
               136         136
               137         137
               138         138
               139         139
               140         140
               141         141
               142         142
               143         143
               144         144
               145         145
               146         146
               147         147
               148         148
               149         149
               150         150
               151         151
               152         152
               153         153
               154         154
               155         155
               156         156

----------------------------------------------------------------------------------------

 
 

Automatic generation of k-mesh.
 generate k-points for:    1    1    4
Space group operators:
 irot       det(A)        alpha          n_x          n_y          n_z        tau_x        tau_y        tau_z
    1     1.000000     0.000000     1.000000     0.000000     0.000000     0.000000     0.000000     0.000000
 
 Subroutine IBZKPT returns following result:
 ===========================================
 
 Found      3 irreducible k-points:
 
 Following reciprocal coordinates:
            Coordinates               Weight
  0.000000  0.000000  0.000000      1.000000
  0.000000 -0.000000  0.250000      2.000000
  0.000000 -0.000000  0.500000      1.000000
 
 Following cartesian coordinates:
            Coordinates               Weight
  0.000000  0.000000  0.000000      1.000000
  0.000010 -0.007166  0.039146      2.000000
  0.000019 -0.014332  0.078293      1.000000
 


--------------------------------------------------------------------------------------------------------




 Dimension of arrays:
   k-points           NKPTS =      3   k-points in BZ     NKDIM =      3   number of bands    NBANDS=    384
   number of dos      NEDOS =    301   number of ions     NIONS =    156
   non local maximal  LDIM  =      6   non local SUM 2l+1 LMDIM =     18
   total plane-waves  NPLWV = 900000
   max r-space proj   IRMAX =   2239   max aug-charges    IRDMAX=   9438
   dimension x,y,z NGX =   150 NGY =  150 NGZ =   40
   dimension x,y,z NGXF=   300 NGYF=  300 NGZF=   80
   support grid    NGXF=   300 NGYF=  300 NGZF=   80
   ions per type =              80   4  32  24  16
   NGX,Y,Z   is equivalent  to a cutoff of  10.20,  9.97, 10.13 a.u.
   NGXF,Y,Z  is equivalent  to a cutoff of  20.41, 19.93, 20.26 a.u.

 SYSTEM =  flex_MOF                                
 POSCAR =  CoH_exp5	                               

 Startparameter for this run:
   NWRITE =      2    write-flag & timer
   PREC   = normal    normal or accurate (medium, high low for compatibility)
   ISTART =      0    job   : 0-new  1-cont  2-samecut
   ICHARG =      2    charge: 1-file 2-atom 10-const
   ISPIN  =      2    spin polarized calculation?
   LNONCOLLINEAR =      F non collinear calculations
   LSORBIT =      F    spin-orbit coupling
   INIWAV =      1    electr: 0-lowe 1-rand  2-diag
   LASPH  =      F    aspherical Exc in radial PAW
   METAGGA=      F    non-selfconsistent MetaGGA calc.

 Electronic Relaxation 1
   ENCUT  =  600.0 eV  44.10 Ry    6.64 a.u.  48.81 49.98 13.11*2*pi/ulx,y,z
   ENINI  =  600.0     initial cutoff
   ENAUG  =  644.9 eV  augmentation charge cutoff
   NELM   =     80;   NELMIN=  8; NELMDL= -5     # of ELM steps 
   EDIFF  = 0.1E-05   stopping-criterion for ELM
   LREAL  =      T    real-space projection
   NLSPLINE    = F    spline interpolate recip. space projectors
   LCOMPAT=      F    compatible to vasp.4.4
   GGA_COMPAT  = T    GGA compatible to vasp.4.4-vasp.4.6
   LMAXPAW     = -100 max onsite density
   LMAXMIX     =    2 max onsite mixed and CHGCAR
   VOSKOWN=      0    Vosko Wilk Nusair interpolation
   ROPT   =   -0.00050  -0.00050  -0.00050  -0.00050
   ROPT   =   -0.00050
 Ionic relaxation
   EDIFFG = -.1E-01   stopping-criterion for IOM
   NSW    =    500    number of steps for IOM
   NBLOCK =      1;   KBLOCK =    500    inner block; outer block 
   IBRION =      2    ionic relax: 0-MD 1-quasi-New 2-CG
   NFREE  =      1    steps in history (QN), initial steepest desc. (CG)
   ISIF   =      4    stress and relaxation
   IWAVPR =     11    prediction:  0-non 1-charg 2-wave 3-comb
   ISYM   =      0    0-nonsym 1-usesym 2-fastsym
   LCORR  =      T    Harris-Foulkes like correction to forces

   POTIM  = 0.5000    time-step for ionic-motion
   TEIN   =    0.0    initial temperature
   TEBEG  =    0.0;   TEEND  =   0.0 temperature during run
   SMASS  =  -3.00    Nose mass-parameter (am)
   estimated Nose-frequenzy (Omega)   =  0.10E-29 period in steps = 0.13E+47 mass=  -0.137E-25a.u.
   SCALEE = 1.0000    scale energy and forces
   NPACO  =    256;   APACO  = 16.0  distance and # of slots for P.C.
   PSTRESS=    0.0 pullay stress

  Mass of Ions in am
   POMASS =  12.01 58.93  1.00 14.00 16.00
  Ionic Valenz
   ZVAL   =   4.00  9.00  1.00  5.00  6.00
  Atomic Wigner-Seitz radii
   RWIGS  =  -1.00 -1.00 -1.00 -1.00 -1.00
  virtual crystal weights 
   VCA    =   1.00  1.00  1.00  1.00  1.00
   NELECT =     604.0000    total number of electrons
   NUPDOWN=      -1.0000    fix difference up-down

 DOS related values:
   EMIN   =  10.00;   EMAX   =-10.00  energy-range for DOS
   EFERMI =   0.00
   ISMEAR =     0;   SIGMA  =   0.05  broadening in eV -4-tet -1-fermi 0-gaus

 Electronic relaxation 2 (details)
   IALGO  =     38    algorithm
   LDIAG  =      T    sub-space diagonalisation (order eigenvalues)
   LSUBROT=      F    optimize rotation matrix (better conditioning)
   TURBO    =      0    0=normal 1=particle mesh
   IRESTART =      0    0=no restart 2=restart with 2 vectors
   NREBOOT  =      0    no. of reboots
   NMIN     =      0    reboot dimension
   EREF     =   0.00    reference energy to select bands
   IMIX   =      4    mixing-type and parameters
     AMIX     =   0.40;   BMIX     =  1.00
     AMIX_MAG =   1.60;   BMIX_MAG =  1.00
     AMIN     =   0.10
     WC   =   100.;   INIMIX=   1;  MIXPRE=   1;  MAXMIX= -45

 Intra band minimization:
   WEIMIN = 0.0010     energy-eigenvalue tresh-hold
   EBREAK =  0.65E-09  absolut break condition
   DEPER  =   0.30     relativ break condition  

   TIME   =   0.40     timestep for ELM

  volume/ion in A,a.u.               =      24.63       166.19
  Fermi-wavevector in a.u.,A,eV,Ry     =   0.883582  1.669728 10.622309  0.780718
  Thomas-Fermi vector in A             =   2.004368
 
 Write flags
   LWAVE        =      T    write WAVECAR
   LDOWNSAMPLE  =      F    k-point downsampling of WAVECAR
   LCHARG       =      T    write CHGCAR
   LVTOT        =      F    write LOCPOT, total local potential
   LVHAR        =      F    write LOCPOT, Hartree potential only
   LELF         =      F    write electronic localiz. function (ELF)
   LORBIT       =     11    0 simple, 1 ext, 2 COOP (PROOUT), +10 PAW based schemes


 Dipole corrections
   LMONO  =      F    monopole corrections only (constant potential shift)
   LDIPOL =      F    correct potential (dipole corrections)
   IDIPOL =      0    1-x, 2-y, 3-z, 4-all directions 
   EPSILON=  1.0000000 bulk dielectric constant

 Exchange correlation treatment:
   GGA     =    PE    GGA type
   LEXCH   =     8    internal setting for exchange type
   VOSKOWN=      0    Vosko Wilk Nusair interpolation
   LHFCALC =     F    Hartree Fock is set to
   LHFONE  =     F    Hartree Fock one center treatment
   AEXX    =    0.0000 exact exchange contribution

 Linear response parameters
   LEPSILON=     F    determine dielectric tensor
   LRPA    =     F    only Hartree local field effects (RPA)
   LNABLA  =     F    use nabla operator in PAW spheres
   LVEL    =     F    velocity operator in full k-point grid
   LINTERFAST=   F  fast interpolation
   KINTER  =     0    interpolate to denser k-point grid
   CSHIFT  =0.1000    complex shift for real part using Kramers Kronig
   OMEGAMAX=  -1.0    maximum frequency
   DEG_THRESHOLD= 0.2000000E-02 threshold for treating states as degnerate
   RTIME   =   -0.100 relaxation time in fs
  (WPLASMAI=    0.000 imaginary part of plasma frequency in eV, 0.658/RTIME)
   DFIELD  = 0.0000000 0.0000000 0.0000000 field for delta impulse in time
 
 Orbital magnetization related:
   ORBITALMAG=     F  switch on orbital magnetization
   LCHIMAG   =     F  perturbation theory with respect to B field
   DQ        =  0.001000  dq finite difference perturbation B field
   LLRAUG    =     F  two centre corrections for induced B field



--------------------------------------------------------------------------------------------------------


 conjugate gradient relaxation of ions
 charge density and potential will be updated during run
 spin polarized calculation
 Variant of blocked Davidson
 Davidson routine will perform the subspace rotation
 perform sub-space diagonalisation
    after iterative eigenvector-optimisation
 modified Broyden-mixing scheme, WC =      100.0
 initial mixing is a Kerker type mixing with AMIX =  0.4000 and BMIX =      1.0000
 Hartree-type preconditioning will be used
 using additional bands           82
 real space projection scheme for non local part
 use partial core corrections
 calculate Harris-corrections to forces 
   (improved forces if not selfconsistent)
 use gradient corrections 
 use of overlap-Matrix (Vanderbilt PP)
 Gauss-broadening in eV      SIGMA  =   0.05


--------------------------------------------------------------------------------------------------------


  energy-cutoff  :      600.00
  volume of cell :     3841.67
      direct lattice vectors                 reciprocal lattice vectors
    24.439976617  0.000877532 -0.005894632     0.040916571 -0.000003260  0.000008087
     0.001070248 24.613379415  4.505679137    -0.000002639  0.041500026 -0.004761964
    -0.001229701  0.748523938  6.523310079     0.000038796 -0.028664254  0.156585524

  length of vectors
    24.439977343 25.022381818  6.566114832     0.040916572  0.041772341  0.159187523


 
 k-points in units of 2pi/SCALE and weight: read from INCAR                         
   0.00000000  0.00000000  0.00000000       0.250
   0.00000970 -0.00716606  0.03914638       0.500
   0.00001940 -0.01433213  0.07829276       0.250
 
 k-points in reciprocal lattice and weights: read from INCAR                         
   0.00000000  0.00000000  0.00000000       0.250
   0.00000000 -0.00000000  0.25000000       0.500
   0.00000000 -0.00000000  0.50000000       0.250
 
 position of ions in fractional coordinates (direct lattice) 
   0.89688628  0.96733642  0.11412908
   0.93602226  0.98376868  0.39746107
   0.89689853  0.81305891  0.93844291
   0.60302338  0.46736223  0.61380244
   0.56408733  0.29660375  0.15487993
   0.06385205  0.79643847  0.15533644
   0.56398649  0.48378248  0.89718742
   0.60308342  0.31310884  0.43828420
   0.43567156  0.48357770  0.39706536
   0.10292554  0.81284023  0.43878173
   0.06402372  0.98370370  0.89757165
   0.43600892  0.29650788  0.65472941
   0.93594058  0.79652486  0.65529221
   0.10312199  0.96721056  0.61441992
   0.39699739  0.31296887  0.93807959
   0.39665548  0.46702603  0.11377816
   0.82204484  0.03195397  0.45450079
   0.84217910  0.08385637  0.07275013
   0.84224568  0.69636400  0.98058444
   0.65780279  0.58384654  0.57251801
   0.65780652  0.19643724  0.48043348
   0.17783552  0.74815976  0.09917154
   0.67797086  0.53193776  0.95431651
   0.67809967  0.24842032  0.09884946
   0.32152926  0.53147566  0.45396512
   0.15741271  0.69603542  0.48048563
   0.15778868  0.08376441  0.57296016
   0.34244797  0.19624616  0.98006564
   0.82192103  0.74835383  0.59895137
   0.17803804  0.03186445  0.95465564
   0.32197420  0.24826611  0.59858899
   0.34178370  0.58352903  0.07250994
   0.77946686  0.07404994  0.45611678
   0.80068016  0.12607329  0.08475974
   0.80064295  0.65420009  0.96878165
   0.69932223  0.62604393  0.58460211
   0.69938872  0.15425051  0.46869074
   0.22036059  0.70601468  0.09759176
   0.72055132  0.57402577  0.95602956
   0.72067312  0.20630886  0.09743088
   0.27899342  0.57360285  0.45574141
   0.19900610  0.65385799  0.46868301
   0.19931758  0.12596597  0.58483496
   0.30076646  0.15412589  0.96855039
   0.77934270  0.70625397  0.59744514
   0.22060483  0.07397702  0.95623542
   0.27938495  0.20616011  0.59726573
   0.30028906  0.62574249  0.08459049
   0.74867139  0.06859779  0.63897364
   0.79131687  0.17183611  0.90828459
   0.79124875  0.60845928  0.14531796
   0.70867678  0.67180456  0.40814272
   0.70878075  0.10850208  0.64523450
   0.25116707  0.71150864  0.91474446
   0.75135532  0.56856686  0.13896844
   0.75147618  0.21177251  0.91460796
   0.24820135  0.56812434  0.63863381
   0.20834334  0.60804666  0.64505653
   0.20866429  0.17169439  0.40825190
   0.29138161  0.10841360  0.14519735
   0.74852897  0.71172253  0.41455463
   0.25144824  0.06853768  0.13906236
   0.24854462  0.21160147  0.41445454
   0.29097641  0.67155931  0.90826378
   0.89207499  0.99946089  0.25617299
   0.89208417  0.78080730  0.79686499
   0.60789856  0.49947270  0.75588463
   0.60794535  0.28088968  0.29660896
   0.10770029  0.78062555  0.29705570
   0.39170791  0.49913795  0.25580432
   0.10796162  0.99935638  0.75638525
   0.39216930  0.28075533  0.79635295
   0.77027821  0.11989228  0.27358817
   0.77018295  0.66040481  0.77996917
   0.72973598  0.61986168  0.77351178
   0.72983474  0.16044649  0.27995140
   0.22947289  0.66009879  0.27996432
   0.26987121  0.61952213  0.27341152
   0.22976790  0.11979826  0.77363616
   0.27024508  0.16032951  0.77988257
   0.98430737  0.89019562  0.02614993
   0.01563627  0.89013124  0.52628301
   0.51559930  0.39021252  0.52576436
   0.48433781  0.39018829  0.02573568
   0.31551887  0.10454763  0.28834614
   0.74346132  0.53286447  0.27715731
   0.74360941  0.24750300  0.77646217
   0.75656410  0.03289282  0.77718606
   0.75639722  0.74744787  0.27643651
   0.68459670  0.67564460  0.26487897
   0.18425221  0.60415248  0.78825890
   0.18456516  0.17552144  0.26505417
   0.81534982  0.60458165  0.28855191
   0.25641041  0.24730966  0.27627528
   0.25605216  0.53236151  0.77668664
   0.24333087  0.74728599  0.77673887
   0.31506996  0.67543941  0.76508691
   0.68468844  0.10463309  0.78840986
   0.81538612  0.17566306  0.76508940
   0.24357372  0.03285003  0.27733494
   0.55291039  0.49756951  0.03376968
   0.44708316  0.28269321  0.51820384
   0.37217583  0.46709037  0.97554854
   0.12739674  0.81269078  0.57712098
   0.05291168  0.99754379  0.03398854
   0.37255728  0.31283305  0.07639659
   0.87240003  0.96748393  0.97583479
   0.94702779  0.78266478  0.51887957
   0.12759928  0.96733931  0.47619836
   0.62748809  0.46750705  0.47553856
   0.55303731  0.28276270  0.01836583
   0.94714333  0.99758656  0.53395686
   0.62752595  0.31301537  0.57662151
   0.44673468  0.49743991  0.53351295
   0.05273706  0.78262447  0.01881046
   0.87243617  0.81296937  0.07665081
   0.94109917  0.93402591  0.17020098
   0.96533275  0.94438645  0.34305314
   0.94102696  0.84645586  0.88190663
   0.55880976  0.43406726  0.66983892
   0.53479103  0.33608044  0.20871948
   0.03463084  0.83595015  0.20927091
   0.53463675  0.44442871  0.84272526
   0.55893251  0.34648699  0.38164418
   0.46512214  0.44428671  0.34267395
   0.05882635  0.84629903  0.38220437
   0.03469723  0.94432359  0.84319117
   0.46526924  0.33599382  0.70869728
   0.96519545  0.83603153  0.70914169
   0.05890179  0.93392604  0.67043178
   0.44112050  0.34637038  0.88158424
   0.44095955  0.43384480  0.16985126
   0.85098296  0.03939162  0.26076562
   0.85098800  0.74085364  0.79253860
   0.64900629  0.53938474  0.76052228
   0.64905779  0.24093873  0.29238346
   0.14876777  0.74063828  0.29266708
   0.35054319  0.53900410  0.26035886
   0.14904523  0.03929645  0.76095971
   0.35108257  0.24078437  0.79207471
   0.83205942  0.99234648  0.61138373
   0.86781492  0.08667071  0.90900129
   0.86799271  0.69349315  0.14421414
   0.63214907  0.58666237  0.40872650
   0.63207781  0.19357657  0.64400691
   0.16796303  0.78784692  0.94237444
   0.66796741  0.49234003  0.11120132
   0.66816840  0.28804230  0.94190120
   0.33148234  0.49180768  0.61071476
   0.13156375  0.69306939  0.64387840
   0.13209085  0.08658338  0.40926719
   0.36835808  0.19330098  0.14338642
   0.83183389  0.78798147  0.44204690
   0.16808647  0.99224742  0.11153927
   0.33186438  0.28788393  0.44161598
   0.36745152  0.58638735  0.90880322
 
 position of ions in cartesian coordinates  (Angst):
  21.92077475 23.89563365  5.09772008
  22.87692627 24.51220231  7.01979032
  21.91989532 20.71536147  9.77984979
  14.73762273 11.96333891  6.10625331
  13.78640805  7.41684688  2.34340606
   1.56120399 19.71937124  4.60142756
  13.78323103 12.57958289  8.02907590
  14.73914073  8.03526206  4.26627677
  10.64783203 12.20007660  4.76645831
   2.51582816 20.33527400  6.52409983
   1.56468727 24.88418255 10.28701403
  10.65555996  7.78852428  5.60440224
  22.87441255 20.09649172  7.85804269
   2.52057865 24.26631893  8.36538424
   9.70178821  8.40574498  7.52718122
   9.69461068 11.58060272  2.84414152
  20.09023200  1.12742127  3.10397828
  20.58283768  2.11918279  0.84743716
  20.58400414 17.87460145  9.52928437
  16.07660564 14.79955711  6.36146017
  16.07639546  5.19517752  4.01522220
   4.34697463 18.48912832  4.01684623
  16.56898786 13.80770965  8.61804701
  16.57288429  6.18904974  1.76013074
   7.85817806 13.42149805  5.35411877
   3.84731695 17.49157692  6.26954114
   3.85573671  2.49073808  4.11408221
   8.36842516  5.56418419  7.27547567
  20.08779515 18.86856751  7.27414282
   4.35010576  1.49903058  6.37003626
   7.86857159  6.55900878  5.02149109
   8.35372096 14.41719681  3.10018473
  19.04967032  2.16471761  3.30444179
  19.56863503  3.16723698  1.11624014
  19.56720375 16.82793382  9.26255928
  17.09137005 15.84725901  6.63017163
  17.09263275  4.14806634  3.74829567
   5.38624337 17.45065024  3.81639798
  17.60969622 14.84495749  8.81860585
  17.61333523  5.15151993  1.56088527
   6.81864615 14.45968283  5.55576835
   4.86382787 16.44464995  6.00226587
   4.87073257  3.53838600  4.38144712
   7.34969906  4.51880597  7.01082342
  19.04713845 17.83118282  7.07487972
   5.39048024  2.53678309  6.56983650
   6.82764785  5.52160986  4.82339398
   7.33962338 15.46521877  3.36943474
  18.29679883  2.16736753  4.47288966
  19.33883281  4.91003451  6.69459590
  19.33857336 15.08570740  3.68481229
  17.32026101 16.84150709  5.68519992
  17.32190772  3.15419834  4.69376225
   6.13815405 18.19756076  9.17151090
  18.36354411 14.09903243  3.46388511
  18.36516224  5.89770247  6.91602061
   6.06585799 14.46171038  6.72432927
   5.09176380 15.44910612  6.94633876
   5.09943208  4.53174866  3.43552355
   7.12129725  2.77736442  1.43392667
  18.29428242 17.82885769  5.90664948
   6.14529152  1.79125598  1.21447344
   6.07414157  5.51867452  3.65555873
   7.11105853 17.20945672  8.94900188
  21.80304644 24.79264458  6.16908747
  21.80237207 19.81556163  8.71100605
  14.85663175 12.86004216  7.17775016
  14.85810601  7.13619676  3.19688738
   2.63266263 19.43628063  5.45439984
   9.57355182 12.47729108  3.91533738
   2.63871899 25.16380484  9.43627831
   9.58392961  7.50677088  6.45753899
  18.82537334  3.15641752  2.32035611
  18.82300093 16.83929558  8.05901295
  17.83444262 15.83652305  7.83445346
  17.83697141  4.15932110  2.54482811
   5.60867418 16.45702335  4.79913475
   6.59597292 15.45342515  4.57332528
   5.61469902  3.52792681  5.58508668
   6.60399611  4.53024903  5.80821616
  24.05736968 21.93116021  4.17571779
   0.38245558 22.30308715  7.44366084
  12.60100599  9.99844852  5.18485713
  11.83759067  9.62354118  1.92309005
   7.71103104  2.78938145  2.35016953
  18.17040687 13.32370668  4.20451697
  18.17310668  6.67373826  6.17588931
  18.48948845  1.39200965  5.21357048
  18.48679046 18.60480108  5.16658264
  16.73192468 16.82876587  4.76808998
   4.50279701 15.46042661  7.86308838
   4.51063016  4.51873707  2.51878587
  19.92742282 15.09750108  4.60155832
   6.26658925  6.29415009  2.91501583
   6.25752336 13.68480919  7.46370863
   5.94684529 18.97485466  8.43250505
   7.70008444 17.19780890  8.03235521
  16.73291188  3.16611848  5.61044915
  19.92726483  4.89706488  5.77759040
   5.95263005  1.01635583  1.95571772
  13.51360791 12.27262977  2.45891948
  10.92636735  7.34631560  4.65149388
   9.09526893 12.22722053  8.46617110
   3.11373344 20.43516730  7.42571205
   1.29418601 24.57841157  4.71601812
   9.10553213  7.75739007  1.90568786
  21.32127178 24.54425020 10.71970260
  23.14553671 19.65324996  6.90566632
   3.11897310 24.16604719  7.46415794
  15.33570973 11.86343105  5.20482344
  13.51649907  6.97397822  1.39058406
  23.14857186 24.95448710  7.97238805
  15.33634550  8.13653178  5.16812871
  10.91806152 12.64341653  5.71894173
   1.28970696 19.27715932  3.64865032
  21.32309533 20.06806412  4.15785342
  23.00123199 23.11775937  5.31314738
  23.59329881 23.50217254  6.48725405
  22.99849831 21.49509336  9.56126191
  13.65693843 11.18574301  6.32204079
  13.07038321  8.42877631  2.87266011
   0.84701422 20.73223279  5.13145805
  13.06594900 11.57016161  7.49665984
  13.66019897  8.81437602  4.04744784
  11.36762836 11.19230522  4.23444009
   1.43815034 21.11641998  6.30604278
   0.84797317 23.87417407  9.75501204
  11.37065753  8.80082843  6.13418982
  23.58937708 21.10921772  8.38715150
   1.43973338 23.48896183  8.58105822
  10.78026144  9.18561970  7.30888091
  10.77729665 10.80591133  3.06015857
  20.79772511  1.16549703  1.87352477
  20.79794504 18.82889254  8.50300757
  15.86134063 13.84591993  7.38759156
  15.86285543  6.14974198  2.98907463
   3.63631360 18.44880974  5.24535958
   8.56752409 13.46190495  4.12491479
   3.64176821  1.53694578  5.14015478
   8.57973347  6.51971193  6.24977656
  20.33582311 24.88336586  8.45453581
  21.20835126  2.81442978  6.31509220
  21.21428645 17.17791938  4.06029468
  15.44983372 14.74623984  5.30583584
  15.44738212  5.24718286  5.06952484
   4.10469682 20.09711244  9.69619602
  16.32549806 12.20197485  2.93978944
  16.32917000  7.79531631  7.43820117
   8.10119608 12.56247458  6.19785538
   3.21536491 17.54085371  7.32219121
   3.22788664  2.43757180  3.05911507
   9.00269350  4.86544189  1.80413498
  20.33030057 19.72649964  6.42909734
   4.10895426 24.50619946  5.19736295
   8.11052281  7.41664763  4.17595437
   8.98001668 15.11355776  8.56831248
 


--------------------------------------------------------------------------------------------------------


 k-point  1 :   0.0000 0.0000 0.0000  plane waves:  128149
 k-point  2 :   0.0000-0.0000 0.2500  plane waves:  128183
 k-point  3 :   0.0000-0.0000 0.5000  plane waves:  128286

 maximum and minimum number of plane-waves per node :     32195    31834

 maximum number of plane-waves:    128286
 maximum index in each direction: 
   IXMAX=   48   IYMAX=   49   IZMAX=   13
   IXMIN=  -48   IYMIN=  -49   IZMIN=  -13


 real space projection operators:
  total allocation   :      11915.74 KBytes
  max/ min on nodes  :       3014.54       2944.03


 parallel 3D FFT for wavefunctions:
    minimum data exchange during FFTs selected (reduces bandwidth)
 parallel 3D FFT for charge:
    minimum data exchange during FFTs selected (reduces bandwidth)


 total amount of memory used by VASP MPI-rank0   110154. kBytes
=======================================================================

   base      :      30000. kBytes
   nonlr-proj:       6094. kBytes
   fftplans  :       9436. kBytes
   grid      :      26068. kBytes
   one-center:       1213. kBytes
   wavefun   :      37343. kBytes
 
     INWAV:  cpu time    0.0001: real time    0.0001
 Broyden mixing: mesh for mixing (old mesh)
   NGX = 97   NGY = 99   NGZ = 27
  (NGX  =300   NGY  =300   NGZ  = 80)
  gives a total of 259281 points

 initial charge density was supplied:
 charge density of overlapping atoms calculated
 number of electron     604.0000000 magnetization      -0.0000000
 keeping initial charge density in first step


--------------------------------------------------------------------------------------------------------


 Maximum index for non-local projection operator          631
 Maximum index for augmentation-charges          456 (set IRDMAX)


--------------------------------------------------------------------------------------------------------


 First call to EWALD:  gamma=   0.113
 Maximum number of real-space cells 2x 2x 6
 Maximum number of reciprocal cells 4x 4x 1

    FEWALD:  cpu time    0.0155: real time    0.0157


--------------------------------------- Iteration      1(   1)  ---------------------------------------


    POTLOK:  cpu time    0.3933: real time    0.4370
    SETDIJ:  cpu time    0.0791: real time    0.0797
     EDDAV:  cpu time   16.4369: real time   16.6101
       DOS:  cpu time    0.0076: real time    0.0081
    --------------------------------------------
      LOOP:  cpu time   16.9169: real time   17.1351

 eigenvalue-minimisations  :  4608
 total energy-change (2. order) : 0.5554652E+04  (-0.2705330E+05)
 number of electron     604.0000000 magnetization      -0.0000000
 augmentation part      604.0000000 magnetization      -0.0000000

 Free energy of the ion-electron system (eV)
  ---------------------------------------------------
  alpha Z        PSCENC =       439.73336556
  Ewald energy   TEWEN  =     42078.37343223
  -Hartree energ DENC   =    -65922.76970892
  -exchange      EXHF   =         0.00000000
  -V(xc)+E(xc)   XCENC  =      2115.79721576
  PAW double counting   =     22087.95224925   -22402.63741193
  entropy T*S    EENTRO =        -0.04902046
  eigenvalues    EBANDS =     -1533.55854635
  atomic energy  EATOM  =     28691.81066055
  Solvation  Ediel_sol  =         0.00000000
  ---------------------------------------------------
  free energy    TOTEN  =      5554.65223568 eV

  energy without entropy =     5554.70125614  energy(sigma->0) =     5554.67674591


--------------------------------------------------------------------------------------------------------




--------------------------------------- Iteration      1(   2)  ---------------------------------------


     EDDAV:  cpu time   21.8130: real time   21.8495
       DOS:  cpu time    0.0015: real time    0.0015
    --------------------------------------------
      LOOP:  cpu time   21.8145: real time   21.8510

 eigenvalue-minimisations  :  6592
 total energy-change (2. order) :-0.5825132E+04  (-0.5594104E+04)
 number of electron     604.0000000 magnetization      -0.0000000
 augmentation part      604.0000000 magnetization      -0.0000000

 Free energy of the ion-electron system (eV)
  ---------------------------------------------------
  alpha Z        PSCENC =       439.73336556
  Ewald energy   TEWEN  =     42078.37343223
  -Hartree energ DENC   =    -65922.76970892
  -exchange      EXHF   =         0.00000000
  -V(xc)+E(xc)   XCENC  =      2115.79721576
  PAW double counting   =     22087.95224925   -22402.63741193
  entropy T*S    EENTRO =        -0.00000000
  eigenvalues    EBANDS =     -7358.73969418
  atomic energy  EATOM  =     28691.81066055
  Solvation  Ediel_sol  =         0.00000000
  ---------------------------------------------------
  free energy    TOTEN  =      -270.47989169 eV

  energy without entropy =     -270.47989169  energy(sigma->0) =     -270.47989169


--------------------------------------------------------------------------------------------------------




--------------------------------------- Iteration      1(   3)  ---------------------------------------


     EDDAV:  cpu time   18.6558: real time   18.6773
       DOS:  cpu time    0.0083: real time    0.0090
    --------------------------------------------
      LOOP:  cpu time   18.6641: real time   18.6863

 eigenvalue-minimisations  :  5440
 total energy-change (2. order) :-0.9894261E+03  (-0.9821973E+03)
 number of electron     604.0000000 magnetization      -0.0000000
 augmentation part      604.0000000 magnetization      -0.0000000

 Free energy of the ion-electron system (eV)
  ---------------------------------------------------
  alpha Z        PSCENC =       439.73336556
  Ewald energy   TEWEN  =     42078.37343223
  -Hartree energ DENC   =    -65922.76970892
  -exchange      EXHF   =         0.00000000
  -V(xc)+E(xc)   XCENC  =      2115.79721576
  PAW double counting   =     22087.95224925   -22402.63741193
  entropy T*S    EENTRO =        -0.07666373
  eigenvalues    EBANDS =     -8348.08908418
  atomic energy  EATOM  =     28691.81066055
  Solvation  Ediel_sol  =         0.00000000
  ---------------------------------------------------
  free energy    TOTEN  =     -1259.90594541 eV

  energy without entropy =    -1259.82928169  energy(sigma->0) =    -1259.86761355


--------------------------------------------------------------------------------------------------------




--------------------------------------- Iteration      1(   4)  ---------------------------------------


     EDDAV:  cpu time   20.9678: real time   20.9913
       DOS:  cpu time    0.0028: real time    0.0028
    --------------------------------------------
      LOOP:  cpu time   20.9706: real time   20.9941

 eigenvalue-minimisations  :  6112
 total energy-change (2. order) :-0.3587240E+02  (-0.3559235E+02)
 number of electron     604.0000000 magnetization      -0.0000000
 augmentation part      604.0000000 magnetization      -0.0000000

 Free energy of the ion-electron system (eV)
  ---------------------------------------------------
  alpha Z        PSCENC =       439.73336556
  Ewald energy   TEWEN  =     42078.37343223
  -Hartree energ DENC   =    -65922.76970892
  -exchange      EXHF   =         0.00000000
  -V(xc)+E(xc)   XCENC  =      2115.79721576
  PAW double counting   =     22087.95224925   -22402.63741193
  entropy T*S    EENTRO =        -0.07081218
  eigenvalues    EBANDS =     -8383.96733175
  atomic energy  EATOM  =     28691.81066055
  Solvation  Ediel_sol  =         0.00000000
  ---------------------------------------------------
  free energy    TOTEN  =     -1295.77834143 eV

  energy without entropy =    -1295.70752926  energy(sigma->0) =    -1295.74293535


--------------------------------------------------------------------------------------------------------




--------------------------------------- Iteration      1(   5)  ---------------------------------------


     EDDAV:  cpu time   23.0486: real time   23.0805
       DOS:  cpu time    0.0026: real time    0.0026
    CHARGE:  cpu time    0.9180: real time    0.9216
    MIXING:  cpu time    0.0168: real time    0.0182
    --------------------------------------------
      LOOP:  cpu time   23.9860: real time   24.0229

 eigenvalue-minimisations  :  6816
 total energy-change (2. order) :-0.1064767E+01  (-0.1062333E+01)
 number of electron     604.0000219 magnetization       0.0001892
 augmentation part       36.8463983 magnetization      -0.0011616

 Broyden mixing:
  rms(total) = 0.86849E+01    rms(broyden)= 0.86844E+01
  rms(prec ) = 0.95648E+01
  weight for this iteration     100.00

 Free energy of the ion-electron system (eV)
  ---------------------------------------------------
  alpha Z        PSCENC =       439.73336556
  Ewald energy   TEWEN  =     42078.37343223
  -Hartree energ DENC   =    -65922.76970892
  -exchange      EXHF   =         0.00000000
  -V(xc)+E(xc)   XCENC  =      2115.79721576
  PAW double counting   =     22087.95224925   -22402.63741193
  entropy T*S    EENTRO =        -0.07017673
  eigenvalues    EBANDS =     -8385.03273459
  atomic energy  EATOM  =     28691.81066055
  Solvation  Ediel_sol  =         0.00000000
  ---------------------------------------------------
  free energy    TOTEN  =     -1296.84310883 eV

  energy without entropy =    -1296.77293210  energy(sigma->0) =    -1296.80802046


--------------------------------------------------------------------------------------------------------




--------------------------------------- Iteration      1(   6)  ---------------------------------------


    POTLOK:  cpu time    0.3384: real time    0.3384
    SETDIJ:  cpu time    0.0621: real time    0.0622
     EDDAV:  cpu time   23.8496: real time   23.8777
       DOS:  cpu time    0.0801: real time    0.0801
    CHARGE:  cpu time    0.8274: real time    0.8331
    MIXING:  cpu time    0.0136: real time    0.0267
    --------------------------------------------
      LOOP:  cpu time   25.1713: real time   25.2182

 eigenvalue-minimisations  :  7040
 total energy-change (2. order) :-0.2124168E+03  (-0.2651793E+03)
 number of electron     604.0000224 magnetization       0.0006365
 augmentation part       56.6179710 magnetization      -0.0216761

 Broyden mixing:
  rms(total) = 0.22499E+02    rms(broyden)= 0.22499E+02
  rms(prec ) = 0.22870E+02
  weight for this iteration     100.00

 eigenvalues of (default mixing * dielectric matrix)
  average eigenvalue GAMMA=   0.0982
  0.0982

 Free energy of the ion-electron system (eV)
  ---------------------------------------------------
  alpha Z        PSCENC =       439.73336556
  Ewald energy   TEWEN  =     42078.37343223
  -Hartree energ DENC   =    -66212.80406831
  -exchange      EXHF   =         0.00000000
  -V(xc)+E(xc)   XCENC  =      2152.05441915
  PAW double counting   =     32820.17418575   -33044.52353105
  entropy T*S    EENTRO =        -0.09436222
  eigenvalues    EBANDS =     -8433.98400668
  atomic energy  EATOM  =     28691.81066055
  Solvation  Ediel_sol  =         0.00000000
  ---------------------------------------------------
  free energy    TOTEN  =     -1509.25990503 eV

  energy without entropy =    -1509.16554281  energy(sigma->0) =    -1509.21272392


--------------------------------------------------------------------------------------------------------




--------------------------------------- Iteration      1(   7)  ---------------------------------------


    POTLOK:  cpu time    0.3414: real time    0.3414
    SETDIJ:  cpu time    0.0619: real time    0.0619
     EDDAV:  cpu time   18.5359: real time   18.5630
       DOS:  cpu time    0.0030: real time    0.0030
    CHARGE:  cpu time    0.8285: real time    0.8346
    MIXING:  cpu time    0.0096: real time    0.0139
    --------------------------------------------
      LOOP:  cpu time   19.7802: real time   19.8178

 eigenvalue-minimisations  :  5280
 total energy-change (2. order) : 0.9514587E+02  (-0.2205148E+02)
 number of electron     604.0000219 magnetization      -0.0001036
 augmentation part       55.0901618 magnetization      -0.0038861

 Broyden mixing:
  rms(total) = 0.14292E+02    rms(broyden)= 0.14292E+02
  rms(prec ) = 0.14801E+02
  weight for this iteration     100.00

 eigenvalues of (default mixing * dielectric matrix)
  average eigenvalue GAMMA=   0.4603
  0.4603  0.4603

 Free energy of the ion-electron system (eV)
  ---------------------------------------------------
  alpha Z        PSCENC =       439.73336556
  Ewald energy   TEWEN  =     42078.37343223
  -Hartree energ DENC   =    -66368.43966190
  -exchange      EXHF   =         0.00000000
  -V(xc)+E(xc)   XCENC  =      2154.41485400
  PAW double counting   =     34347.30219331   -34601.43263474
  entropy T*S    EENTRO =        -0.13125275
  eigenvalues    EBANDS =     -8155.74499234
  atomic energy  EATOM  =     28691.81066055
  Solvation  Ediel_sol  =         0.00000000
  ---------------------------------------------------
  free energy    TOTEN  =     -1414.11403609 eV

  energy without entropy =    -1413.98278334  energy(sigma->0) =    -1414.04840972


--------------------------------------------------------------------------------------------------------




--------------------------------------- Iteration      1(   8)  ---------------------------------------


    POTLOK:  cpu time    0.3181: real time    0.3181
    SETDIJ:  cpu time    0.0618: real time    0.0618
     EDDAV:  cpu time   22.0209: real time   22.0465
       DOS:  cpu time    0.0027: real time    0.0028
    CHARGE:  cpu time    0.8291: real time    0.8347
    MIXING:  cpu time    0.0085: real time    0.0109
    --------------------------------------------
      LOOP:  cpu time   23.2412: real time   23.2749

 eigenvalue-minimisations  :  6464
 total energy-change (2. order) : 0.2544800E+03  (-0.2479713E+02)
 number of electron     604.0000237 magnetization       0.0000740
 augmentation part       46.0135298 magnetization      -0.0056883

 Broyden mixing:
  rms(total) = 0.31460E+01    rms(broyden)= 0.31458E+01
  rms(prec ) = 0.32216E+01
  weight for this iteration     100.00

 eigenvalues of (default mixing * dielectric matrix)
  average eigenvalue GAMMA=   0.4966
  0.5182  0.4857  0.4857

 Free energy of the ion-electron system (eV)
  ---------------------------------------------------
  alpha Z        PSCENC =       439.73336556
  Ewald energy   TEWEN  =     42078.37343223
  -Hartree energ DENC   =    -66850.03924771
  -exchange      EXHF   =         0.00000000
  -V(xc)+E(xc)   XCENC  =      2164.58133722
  PAW double counting   =     39623.07650436   -39959.16180883
  entropy T*S    EENTRO =        -0.00126096
  eigenvalues    EBANDS =     -7348.00701670
  atomic energy  EATOM  =     28691.81066055
  Solvation  Ediel_sol  =         0.00000000
  ---------------------------------------------------
[...]
     15.33571     11.86343      5.20482        -0.001021      0.001819      0.000214
     13.51650      6.97398      1.39058        -0.002580     -0.001327     -0.000742
     23.14857     24.95449      7.97239         0.001918     -0.000389      0.000588
     15.33635      8.13653      5.16813        -0.000295     -0.004205      0.000223
     10.91806     12.64342      5.71894         0.001651      0.000713      0.002342
      1.28971     19.27716      3.64865        -0.000928     -0.000062      0.001448
     21.32310     20.06806      4.15785         0.001152     -0.003268      0.000557
     23.00123     23.11776      5.31315        -0.000041     -0.000593      0.000742
     23.59330     23.50217      6.48725        -0.003493      0.000545      0.000400
     22.99850     21.49509      9.56126        -0.005314     -0.005983      0.002306
     13.65694     11.18574      6.32204         0.004767      0.003399      0.000549
     13.07038      8.42878      2.87266        -0.001016     -0.003098      0.001694
      0.84701     20.73223      5.13146         0.000980     -0.002264      0.000684
     13.06595     11.57016      7.49666         0.002637     -0.000413     -0.000143
     13.66020      8.81438      4.04745         0.002131     -0.004931      0.001093
     11.36763     11.19231      4.23444        -0.002845      0.000682     -0.000088
      1.43815     21.11642      6.30604         0.004551     -0.007202      0.002047
      0.84797     23.87417      9.75501         0.002709      0.001397     -0.000507
     11.37066      8.80083      6.13419         0.002770     -0.000890      0.002401
     23.58938     21.10922      8.38715         0.001219     -0.002960      0.001946
      1.43973     23.48896      8.58106         0.003405     -0.000097      0.000345
     10.78026      9.18562      7.30888        -0.004994     -0.004505      0.001097
     10.77730     10.80591      3.06016        -0.002968      0.003856      0.000988
     20.79773      1.16550      1.87352        -0.001383      0.004791      0.001786
     20.79795     18.82889      8.50301        -0.002853     -0.003976     -0.003218
     15.86134     13.84592      7.38759         0.003667      0.004538      0.004215
     15.86286      6.14974      2.98907         0.001782     -0.003758     -0.002202
      3.63631     18.44881      5.24536         0.001892     -0.005370     -0.001962
      8.56752     13.46190      4.12491        -0.002768      0.002530      0.003632
      3.64177      1.53695      5.14015         0.002814      0.003591      0.002813
      8.57973      6.51971      6.24978        -0.003630     -0.004082     -0.002231
     20.33582     24.88337      8.45454         0.000113      0.001177      0.004962
     21.20835      2.81443      6.31509        -0.001410      0.002623      0.001877
     21.21429     17.17792      4.06029        -0.000510     -0.000636     -0.003213
     15.44983     14.74624      5.30584         0.000097      0.003983     -0.000073
     15.44738      5.24718      5.06952        -0.000194     -0.000955     -0.002831
      4.10470     20.09711      9.69620        -0.002805     -0.001174     -0.003754
     16.32550     12.20197      2.93979         0.000150      0.000456      0.004011
     16.32917      7.79532      7.43820        -0.001475     -0.000268     -0.002191
      8.10120     12.56247      6.19786         0.000098     -0.000284      0.005769
      3.21536     17.54085      7.32219         0.005627      0.001727      0.000707
      3.22789      2.43757      3.05912         0.000093      0.002962     -0.000373
      9.00269      4.86544      1.80413        -0.004250      0.000457     -0.000151
     20.33030     19.72650      6.42910         0.000743     -0.000909     -0.002840
      4.10895     24.50620      5.19736         0.000616      0.000198      0.005266
      8.11052      7.41665      4.17595         0.001102     -0.002508     -0.003019
      8.98002     15.11356      8.56831         0.001100      0.004081     -0.000364
 -----------------------------------------------------------------------------------
    total drift:                               -0.004609      0.007607     -0.007494


--------------------------------------------------------------------------------------------------------



  FREE ENERGIE OF THE ION-ELECTRON SYSTEM (eV)
  ---------------------------------------------------
  free  energy   TOTEN  =     -1179.20853052 eV

  energy  without entropy=    -1179.20493408  energy(sigma->0) =    -1179.20673230
 


--------------------------------------------------------------------------------------------------------


    POTLOK:  cpu time    0.4104: real time    0.4105


--------------------------------------------------------------------------------------------------------




--------------------------------------------------------------------------------------------------------


  
 reached required accuracy - stopping structural energy minimisation
 writing wavefunctions
     LOOP+:  cpu time 1040.9199: real time 1055.7268
    4ORBIT:  cpu time    0.0000: real time    0.0000
 


 total charge     
 
# of ion       s       p       d       tot
------------------------------------------
    1        0.867   1.769   0.000   2.635
    2        0.867   1.774   0.000   2.641
    3        0.867   1.769   0.000   2.635
    4        0.867   1.769   0.000   2.635
    5        0.867   1.774   0.000   2.641
    6        0.867   1.774   0.000   2.641
    7        0.867   1.774   0.000   2.641
    8        0.867   1.769   0.000   2.635
    9        0.867   1.774   0.000   2.641
   10        0.867   1.769   0.000   2.635
   11        0.867   1.774   0.000   2.641
   12        0.867   1.774   0.000   2.641
   13        0.867   1.774   0.000   2.641
   14        0.867   1.769   0.000   2.635
   15        0.867   1.769   0.000   2.635
   16        0.867   1.769   0.000   2.635
   17        0.863   1.716   0.000   2.579
   18        0.863   1.718   0.000   2.582
   19        0.863   1.718   0.000   2.581
   20        0.863   1.718   0.000   2.582
   21        0.863   1.718   0.000   2.581
   22        0.863   1.716   0.000   2.579
   23        0.863   1.716   0.000   2.579
   24        0.863   1.716   0.000   2.579
   25        0.863   1.716   0.000   2.579
   26        0.863   1.718   0.000   2.581
   27        0.863   1.719   0.000   2.582
   28        0.863   1.718   0.000   2.581
   29        0.863   1.716   0.000   2.579
   30        0.863   1.716   0.000   2.579
   31        0.863   1.716   0.000   2.579
   32        0.863   1.719   0.000   2.582
   33        0.866   1.783   0.000   2.650
   34        0.866   1.784   0.000   2.651
   35        0.866   1.784   0.000   2.650
   36        0.866   1.784   0.000   2.650
   37        0.866   1.784   0.000   2.650
   38        0.867   1.783   0.000   2.650
   39        0.866   1.783   0.000   2.650
   40        0.867   1.783   0.000   2.650
   41        0.866   1.783   0.000   2.650
   42        0.866   1.784   0.000   2.650
   43        0.866   1.784   0.000   2.651
   44        0.866   1.784   0.000   2.650
   45        0.867   1.784   0.000   2.650
   46        0.866   1.783   0.000   2.650
   47        0.867   1.783   0.000   2.650
   48        0.866   1.784   0.000   2.651
   49        0.870   1.766   0.000   2.636
   50        0.871   1.766   0.000   2.636
   51        0.870   1.766   0.000   2.636
   52        0.871   1.766   0.000   2.636
   53        0.870   1.766   0.000   2.636
   54        0.870   1.766   0.000   2.637
   55        0.870   1.766   0.000   2.636
   56        0.870   1.766   0.000   2.637
   57        0.870   1.766   0.000   2.636
   58        0.870   1.766   0.000   2.636
   59        0.871   1.766   0.000   2.636
   60        0.870   1.766   0.000   2.636
   61        0.870   1.766   0.000   2.637
   62        0.870   1.766   0.000   2.636
   63        0.870   1.766   0.000   2.637
   64        0.871   1.766   0.000   2.637
   65        0.846   1.792   0.000   2.638
   66        0.846   1.792   0.000   2.638
   67        0.846   1.792   0.000   2.638
   68        0.846   1.792   0.000   2.638
   69        0.846   1.792   0.000   2.638
   70        0.846   1.792   0.000   2.638
   71        0.846   1.792   0.000   2.638
   72        0.846   1.792   0.000   2.638
   73        0.866   1.794   0.000   2.660
   74        0.866   1.794   0.000   2.660
   75        0.866   1.794   0.000   2.660
   76        0.866   1.794   0.000   2.660
   77        0.866   1.794   0.000   2.660
   78        0.866   1.794   0.000   2.660
   79        0.866   1.794   0.000   2.660
   80        0.866   1.794   0.000   2.660
   81        0.409   0.525   7.159   8.092
   82        0.409   0.524   7.159   8.092
   83        0.408   0.524   7.159   8.092
   84        0.409   0.525   7.159   8.092
   85        0.638   0.048   0.000   0.686
   86        0.638   0.048   0.000   0.687
   87        0.638   0.048   0.000   0.687
   88        0.638   0.048   0.000   0.687
   89        0.638   0.048   0.000   0.687
   90        0.638   0.048   0.000   0.686
   91        0.638   0.048   0.000   0.686
   92        0.638   0.048   0.000   0.686
   93        0.638   0.048   0.000   0.686
   94        0.638   0.048   0.000   0.687
   95        0.638   0.048   0.000   0.687
   96        0.638   0.048   0.000   0.687
   97        0.638   0.048   0.000   0.686
   98        0.638   0.048   0.000   0.686
   99        0.638   0.048   0.000   0.686
  100        0.638   0.048   0.000   0.687
  101        0.637   0.049   0.000   0.686
  102        0.637   0.049   0.000   0.686
  103        0.631   0.050   0.000   0.681
  104        0.631   0.050   0.000   0.681
  105        0.637   0.049   0.000   0.686
  106        0.631   0.050   0.000   0.681
  107        0.631   0.050   0.000   0.681
  108        0.637   0.049   0.000   0.686
  109        0.631   0.050   0.000   0.681
  110        0.631   0.050   0.000   0.681
  111        0.637   0.049   0.000   0.686
  112        0.637   0.049   0.000   0.686
  113        0.631   0.050   0.000   0.681
  114        0.637   0.049   0.000   0.686
  115        0.637   0.049   0.000   0.686
  116        0.631   0.050   0.000   0.681
  117        1.236   2.610   0.000   3.846
  118        1.237   2.611   0.000   3.848
  119        1.236   2.610   0.000   3.846
  120        1.236   2.610   0.000   3.846
  121        1.237   2.612   0.000   3.848
  122        1.237   2.612   0.000   3.848
  123        1.237   2.612   0.000   3.848
  124        1.236   2.610   0.000   3.846
  125        1.237   2.612   0.000   3.848
  126        1.236   2.610   0.000   3.846
  127        1.237   2.612   0.000   3.848
  128        1.237   2.612   0.000   3.848
  129        1.237   2.612   0.000   3.848
  130        1.236   2.610   0.000   3.846
  131        1.236   2.610   0.000   3.846
  132        1.236   2.610   0.000   3.846
  133        1.211   2.723   0.000   3.934
  134        1.211   2.723   0.000   3.933
  135        1.211   2.723   0.000   3.934
  136        1.211   2.723   0.000   3.933
  137        1.211   2.723   0.000   3.933
  138        1.211   2.723   0.000   3.934
  139        1.211   2.723   0.000   3.934
  140        1.211   2.723   0.000   3.933
  141        1.585   3.539   0.000   5.124
  142        1.586   3.535   0.000   5.121
  143        1.586   3.535   0.000   5.121
  144        1.586   3.535   0.000   5.121
  145        1.586   3.535   0.000   5.121
  146        1.585   3.539   0.000   5.124
  147        1.585   3.539   0.000   5.124
  148        1.585   3.539   0.000   5.124
  149        1.585   3.539   0.000   5.124
  150        1.586   3.535   0.000   5.121
  151        1.586   3.535   0.000   5.121
  152        1.586   3.535   0.000   5.121
  153        1.585   3.539   0.000   5.124
  154        1.585   3.539   0.000   5.124
  155        1.585   3.539   0.000   5.124
  156        1.586   3.535   0.000   5.121
--------------------------------------------------
tot        145.987 265.096  28.636 439.719
 


 magnetization (x)
 
# of ion       s       p       d       tot
------------------------------------------
    1        0.003   0.013   0.000   0.015
    2        0.003   0.014   0.000   0.016
    3        0.003   0.013   0.000   0.015
    4       -0.003  -0.013   0.000  -0.015
    5       -0.003  -0.014   0.000  -0.016
    6        0.003   0.014   0.000   0.016
    7       -0.003  -0.014   0.000  -0.016
    8       -0.003  -0.013   0.000  -0.015
    9       -0.003  -0.014   0.000  -0.016
   10        0.003   0.013   0.000   0.015
   11        0.003   0.014   0.000   0.016
   12       -0.003  -0.014   0.000  -0.016
   13        0.003   0.014   0.000   0.016
   14        0.003   0.013   0.000   0.015
   15       -0.003  -0.013   0.000  -0.015
   16       -0.003  -0.013   0.000  -0.015
   17        0.000   0.001   0.000   0.001
   18        0.000   0.001   0.000   0.001
   19        0.000   0.001   0.000   0.001
   20       -0.000  -0.001   0.000  -0.001
   21       -0.000  -0.001   0.000  -0.001
   22        0.000   0.001   0.000   0.001
   23       -0.000  -0.001   0.000  -0.001
   24       -0.000  -0.001   0.000  -0.001
   25       -0.000  -0.001   0.000  -0.001
   26        0.000   0.001   0.000   0.001
   27        0.000   0.001   0.000   0.001
   28       -0.000  -0.001   0.000  -0.001
   29        0.000   0.001   0.000   0.001
   30        0.000   0.001   0.000   0.001
   31       -0.000  -0.001   0.000  -0.001
   32       -0.000  -0.001   0.000  -0.001
   33        0.000  -0.000   0.000  -0.000
   34       -0.000  -0.000   0.000  -0.000
   35       -0.000  -0.000   0.000  -0.000
   36        0.000   0.000   0.000   0.000
   37        0.000   0.000   0.000   0.000
   38        0.000  -0.000   0.000  -0.000
   39       -0.000   0.000   0.000   0.000
   40       -0.000   0.000   0.000   0.000
   41       -0.000   0.000   0.000   0.000
   42       -0.000  -0.000   0.000  -0.000
   43       -0.000  -0.000   0.000  -0.000
   44        0.000   0.000   0.000   0.000
   45        0.000  -0.000   0.000  -0.000
   46        0.000  -0.000   0.000  -0.000
   47       -0.000   0.000   0.000   0.000
   48        0.000   0.000   0.000   0.000
   49        0.000   0.000   0.000   0.000
   50        0.000   0.000   0.000   0.000
   51        0.000   0.000   0.000   0.000
   52       -0.000  -0.000   0.000  -0.000
   53       -0.000  -0.000   0.000  -0.000
   54        0.000   0.000   0.000   0.000
   55       -0.000  -0.000   0.000  -0.000
   56       -0.000  -0.000   0.000  -0.000
   57       -0.000  -0.000   0.000  -0.000
   58        0.000   0.000   0.000   0.000
   59        0.000   0.000   0.000   0.000
   60       -0.000  -0.000   0.000  -0.000
   61        0.000   0.000   0.000   0.000
   62        0.000   0.000   0.000   0.000
   63       -0.000  -0.000   0.000  -0.000
   64       -0.000  -0.000   0.000  -0.000
   65        0.002   0.008   0.000   0.010
   66        0.002   0.008   0.000   0.010
   67       -0.002  -0.008   0.000  -0.010
   68       -0.002  -0.008   0.000  -0.010
   69        0.002   0.008   0.000   0.010
   70       -0.002  -0.008   0.000  -0.010
   71        0.002   0.008   0.000   0.010
   72       -0.002  -0.008   0.000  -0.010
   73        0.000   0.000   0.000   0.000
   74        0.000   0.000   0.000   0.000
   75       -0.000  -0.000   0.000  -0.000
   76       -0.000  -0.000   0.000  -0.000
   77        0.000   0.000   0.000   0.000
   78       -0.000  -0.000   0.000  -0.000
   79        0.000   0.000   0.000   0.000
   80       -0.000  -0.000   0.000  -0.000
   81        0.011   0.088   2.337   2.436
   82        0.011   0.088   2.337   2.436
   83       -0.011  -0.088  -2.337  -2.436
   84       -0.011  -0.088  -2.337  -2.436
   85        0.000  -0.000   0.000   0.000
   86        0.000  -0.000   0.000   0.000
   87        0.000  -0.000   0.000   0.000
   88       -0.000   0.000   0.000  -0.000
   89       -0.000   0.000   0.000  -0.000
   90        0.000  -0.000   0.000   0.000
   91       -0.000   0.000   0.000  -0.000
   92       -0.000   0.000   0.000  -0.000
   93       -0.000   0.000   0.000  -0.000
   94        0.000  -0.000   0.000   0.000
   95        0.000  -0.000   0.000   0.000
   96       -0.000   0.000   0.000  -0.000
   97        0.000  -0.000   0.000   0.000
   98        0.000  -0.000   0.000   0.000
   99       -0.000   0.000   0.000  -0.000
  100       -0.000   0.000   0.000  -0.000
  101       -0.001  -0.000   0.000  -0.001
  102       -0.001  -0.000   0.000  -0.001
  103       -0.001  -0.000   0.000  -0.001
  104        0.001   0.000   0.000   0.001
  105        0.001   0.000   0.000   0.001
  106       -0.001  -0.000   0.000  -0.001
  107        0.001   0.000   0.000   0.001
  108        0.001   0.000   0.000   0.001
  109        0.001   0.000   0.000   0.001
  110       -0.001  -0.000   0.000  -0.001
  111       -0.001  -0.000   0.000  -0.001
  112        0.001   0.000   0.000   0.001
  113       -0.001  -0.000   0.000  -0.001
  114       -0.001  -0.000   0.000  -0.001
  115        0.001   0.000   0.000   0.001
  116        0.001   0.000   0.000   0.001
  117        0.013   0.045   0.000   0.058
  118        0.015   0.047   0.000   0.062
  119        0.013   0.045   0.000   0.058
  120       -0.013  -0.045   0.000  -0.058
  121       -0.015  -0.047   0.000  -0.062
  122        0.015   0.047   0.000   0.062
  123       -0.015  -0.047   0.000  -0.062
  124       -0.013  -0.045   0.000  -0.058
  125       -0.015  -0.047   0.000  -0.062
  126        0.013   0.045   0.000   0.058
  127        0.015   0.047   0.000   0.062
  128       -0.015  -0.047   0.000  -0.062
  129        0.015   0.047   0.000   0.062
  130        0.013   0.045   0.000   0.058
  131       -0.013  -0.045   0.000  -0.058
  132       -0.013  -0.045   0.000  -0.058
  133        0.000   0.001   0.000   0.001
  134        0.000   0.001   0.000   0.001
  135       -0.000  -0.001   0.000  -0.001
  136       -0.000  -0.001   0.000  -0.001
  137        0.000   0.001   0.000   0.001
  138       -0.000  -0.001   0.000  -0.001
  139        0.000   0.001   0.000   0.001
  140       -0.000  -0.001   0.000  -0.001
  141        0.000   0.001   0.000   0.001
  142        0.000   0.001   0.000   0.001
  143        0.000   0.001   0.000   0.001
  144       -0.000  -0.001   0.000  -0.001
  145       -0.000  -0.001   0.000  -0.001
  146        0.000   0.001   0.000   0.001
  147       -0.000  -0.001   0.000  -0.001
  148       -0.000  -0.001   0.000  -0.001
  149       -0.000  -0.001   0.000  -0.001
  150        0.000   0.001   0.000   0.001
  151        0.000   0.001   0.000   0.001
  152       -0.000  -0.001   0.000  -0.001
  153        0.000   0.001   0.000   0.001
  154        0.000   0.001   0.000   0.001
  155       -0.000  -0.001   0.000  -0.001
  156       -0.000  -0.001   0.000  -0.001
--------------------------------------------------
tot         -0.000  -0.000   0.000   0.000
 

 total amount of memory used by VASP MPI-rank0   110154. kBytes
=======================================================================

   base      :      30000. kBytes
   nonlr-proj:       6094. kBytes
   fftplans  :       9436. kBytes
   grid      :      26068. kBytes
   one-center:       1213. kBytes
   wavefun   :      37343. kBytes
 
  
  
 General timing and accounting informations for this job:
 ========================================================
  
                  Total CPU time used (sec):     1251.178
                            User time (sec):     1155.927
                          System time (sec):       95.251
                         Elapsed time (sec):     1274.485
  
                   Maximum memory used (kb):      975312.
                   Average memory used (kb):           0.
  
                          Minor page faults:        73140
                          Major page faults:           11
                 Voluntary context switches:        40105
