       N       E                     dE             d eps       ncg     rms          rms(c)
DAV:   1     0.476964728479E+04    0.47696E+04   -0.30463E+05 10752   0.156E+03
DAV:   2    -0.626025786184E+03   -0.53957E+04   -0.51962E+04 13536   0.345E+02
DAV:   3    -0.127116695020E+04   -0.64514E+03   -0.63719E+03 12800   0.128E+02
DAV:   4    -0.129392618631E+04   -0.22759E+02   -0.22566E+02 14048   0.298E+01
DAV:   5    -0.129466303801E+04   -0.73685E+00   -0.73539E+00 14848   0.487E+00    0.860E+01
DAV:   6    -0.151084826099E+04   -0.21619E+03   -0.25589E+03 16384   0.937E+01    0.219E+02
DAV:   7    -0.141926352468E+04    0.91585E+02   -0.21281E+02 12352   0.302E+01    0.144E+02
DAV:   8    -0.116184622112E+04    0.25742E+03   -0.48661E+02 15296   0.951E+01    0.335E+01
DAV:   9    -0.117892501711E+04   -0.17079E+02   -0.51445E+02 15296   0.448E+01    0.538E+01
DAV:  10    -0.116848590709E+04    0.10439E+02   -0.29597E+02 14656   0.216E+01    0.344E+01
DAV:  11    -0.118509433789E+04   -0.16608E+02   -0.19158E+02 15488   0.325E+01    0.641E+01
DAV:  12    -0.117068241665E+04    0.14412E+02   -0.23362E+02 15008   0.272E+01    0.425E+01
DAV:  13    -0.116764743746E+04    0.30350E+01   -0.18665E+02 15232   0.200E+01    0.368E+01
DAV:  14    -0.116403007673E+04    0.36174E+01   -0.31878E+01 15072   0.136E+01    0.283E+01
DAV:  15    -0.116312110460E+04    0.90897E+00   -0.28928E+01 16064   0.871E+00    0.217E+01
DAV:  16    -0.116361623417E+04   -0.49513E+00   -0.24042E+01 15616   0.105E+01    0.203E+01
DAV:  17    -0.116421370020E+04   -0.59747E+00   -0.24630E+00 13984   0.632E+00    0.132E+01
DAV:  18    -0.116480776400E+04   -0.59406E+00   -0.22172E-01 13824   0.172E+00    0.121E+01
DAV:  19    -0.116724117498E+04   -0.24334E+01   -0.10825E+00 13504   0.495E+00    0.144E+01
DAV:  20    -0.116746715690E+04   -0.22598E+00   -0.38832E-01 14688   0.264E+00    0.136E+01
DAV:  21    -0.116744397571E+04    0.23181E-01   -0.29533E+00 15520   0.559E+00    0.601E+00
DAV:  22    -0.116781132188E+04   -0.36735E+00   -0.46468E-01 14400   0.261E+00    0.656E+00
DAV:  23    -0.116785624239E+04   -0.44921E-01   -0.12879E-01 15072   0.191E+00    0.473E+00
DAV:  24    -0.116774731760E+04    0.10892E+00   -0.14150E-01 15584   0.266E+00    0.245E+00
DAV:  25    -0.116763438154E+04    0.11294E+00   -0.13550E-01 16384   0.201E+00    0.140E+00
DAV:  26    -0.116756718161E+04    0.67200E-01   -0.10841E-01 15968   0.133E+00    0.912E-01
DAV:  27    -0.116756679922E+04    0.38239E-03   -0.56297E-02 14368   0.737E-01    0.769E-01
DAV:  28    -0.116759721933E+04   -0.30420E-01   -0.16135E-02 15072   0.619E-01    0.536E-01
DAV:  29    -0.116763991875E+04   -0.42699E-01   -0.27440E-02 16608   0.911E-01    0.474E-01
DAV:  30    -0.116767739302E+04   -0.37474E-01   -0.25469E-02 13664   0.368E-01    0.479E-01
DAV:  31    -0.116773516459E+04   -0.57772E-01   -0.77137E-03 13056   0.225E-01    0.527E-01
DAV:  32    -0.116778963285E+04   -0.54468E-01   -0.20807E-02 12608   0.321E-01    0.440E-01
DAV:  33    -0.116780413428E+04   -0.14501E-01   -0.23108E-03 13024   0.127E-01    0.394E-01
DAV:  34    -0.116782662150E+04   -0.22487E-01   -0.21762E-03 12928   0.112E-01    0.276E-01
DAV:  35    -0.116784459906E+04   -0.17978E-01   -0.33022E-03 13184   0.111E-01    0.191E-01
DAV:  36    -0.116785407865E+04   -0.94796E-02   -0.17456E-03 13216   0.831E-02    0.147E-01
DAV:  37    -0.116785605192E+04   -0.19733E-02   -0.35121E-04 15264   0.995E-02    0.977E-02
DAV:  38    -0.116786036173E+04   -0.43098E-02   -0.13848E-03 13216   0.914E-02    0.467E-02
DAV:  39    -0.116786148821E+04   -0.11265E-02   -0.27843E-04 13248   0.329E-02    0.436E-02
DAV:  40    -0.116786220962E+04   -0.72140E-03   -0.11363E-04 12608   0.239E-02    0.408E-02
DAV:  41    -0.116786247950E+04   -0.26988E-03   -0.70982E-05 12512   0.210E-02    0.191E-02
DAV:  42    -0.116786253941E+04   -0.59908E-04   -0.12897E-05 12704   0.106E-02    0.109E-02
DAV:  43    -0.116786260379E+04   -0.64387E-04   -0.92879E-06 12512   0.816E-03    0.948E-03
DAV:  44    -0.116786264116E+04   -0.37362E-04   -0.58747E-06 10656   0.609E-03    0.510E-03
DAV:  45    -0.116786265136E+04   -0.10208E-04   -0.14023E-06  9280   0.316E-03    0.427E-03
DAV:  46    -0.116786265986E+04   -0.84985E-05   -0.78704E-07  8384   0.221E-03    0.464E-03
DAV:  47    -0.116786266551E+04   -0.56517E-05   -0.92772E-07  8416   0.194E-03    0.364E-03
DAV:  48    -0.116786266712E+04   -0.16040E-05   -0.26944E-07  7712   0.159E-03    0.297E-03
DAV:  49    -0.116786266846E+04   -0.13426E-05   -0.29001E-07  7520   0.105E-03    0.255E-03
DAV:  50    -0.116786266953E+04   -0.10696E-05   -0.17656E-07  7520   0.116E-03    0.200E-03
DAV:  51    -0.116786267037E+04   -0.84220E-06   -0.17682E-07  7616   0.124E-03
   1 F= -.11801113E+04 E0= -.11801054E+04  d E =-.118011E+04  mag=    -0.0013
