 vasp.5.4.4.18Apr17-6-g9f103f2a35 (build May 22 2020 17:00:04) complex          
  
 executed on           IFC15_impi date 2020.09.22  13:10:36
 running on  128 total cores
 distrk:  each k-point on  128 cores,    1 groups
 distr:  one band on NCORES_PER_BAND=   4 cores,   32 groups


--------------------------------------------------------------------------------------------------------


 INCAR:
 POTCAR:    PAW_PBE C 08Apr2002                   
 POTCAR:    PAW_PBE Co 02Aug2007                  
 POTCAR:    PAW_PBE H 15Jun2001                   
 POTCAR:    PAW_PBE N 08Apr2002                   
 POTCAR:    PAW_PBE O 08Apr2002                   

 ----------------------------------------------------------------------------- 
|                                                                             |
|           W    W    AA    RRRRR   N    N  II  N    N   GGGG   !!!           |
|           W    W   A  A   R    R  NN   N  II  NN   N  G    G  !!!           |
|           W    W  A    A  R    R  N N  N  II  N N  N  G       !!!           |
|           W WW W  AAAAAA  RRRRR   N  N N  II  N  N N  G  GGG   !            |
|           WW  WW  A    A  R   R   N   NN  II  N   NN  G    G                |
|           W    W  A    A  R    R  N    N  II  N    N   GGGG   !!!           |
|                                                                             |
|      For optimal performance we recommend to set                            |
|        NCORE= 4 - approx SQRT( number of cores)                             |
|      NCORE specifies how many cores store one orbital (NPAR=cpu/NCORE).     |
|      This setting can  greatly improve the performance of VASP for DFT.     |
|      The default,   NCORE=1            might be grossly inefficient         |
|      on modern multi-core architectures or massively parallel machines.     |
|      Do your own testing !!!!                                               |
|      Unfortunately you need to use the default for GW and RPA calculations. |
|      (for HF NCORE is supported but not extensively tested yet)             |
|                                                                             |
 ----------------------------------------------------------------------------- 

 POTCAR:    PAW_PBE C 08Apr2002                   
   VRHFIN =C: s2p2                                                              
   LEXCH  = PE                                                                  
   EATOM  =   147.1560 eV,   10.8157 Ry                                         
                                                                                
   TITEL  = PAW_PBE C 08Apr2002                                                 
   LULTRA =        F    use ultrasoft PP ?                                      
   IUNSCR =        1    unscreen: 0-lin 1-nonlin 2-no                           
   RPACOR =    1.200    partial core radius                                     
   POMASS =   12.011; ZVAL   =    4.000    mass and valenz                      
   RCORE  =    1.500    outmost cutoff radius                                   
   RWIGS  =    1.630; RWIGS  =    0.863    wigner-seitz radius (au A)           
   ENMAX  =  400.000; ENMIN  =  300.000 eV                                      
   ICORE  =        2    local potential                                         
   LCOR   =        T    correct aug charges                                     
   LPAW   =        T    paw PP                                                  
   EAUG   =  644.873                                                            
   DEXC   =    0.000                                                            
   RMAX   =    1.529    core radius for proj-oper                               
   RAUG   =    1.300    factor for augmentation sphere                          
   RDEP   =    1.501    radius for radial grids                                 
   RDEPT  =    1.300    core radius for aug-charge                              
                                                                                
   Atomic configuration                                                         
    4 entries                                                                   
     n  l   j            E        occ.                                          
     1  0  0.50      -273.3789   2.0000                                         
     2  0  0.50       -13.7508   2.0000                                         
     2  1  0.50        -5.2854   2.0000                                         
     3  2  1.50        -5.4423   0.0000                                         
   Description                                                                  
     l       E           TYP  RCUT    TYP  RCUT                                 
     0    -13.7508458     23  1.200                                             
     0     -8.2022199     23  1.200                                             
     1     -5.2854383     23  1.500                                             
     1     34.0145650     23  1.500                                             
     2     -5.4423304      7  1.500                                             
  local pseudopotential read in
  partial core-charges read in
  partial kinetic energy density read in
  atomic valenz-charges read in
  non local Contribution for L=           0  read in
    real space projection operators read in
  non local Contribution for L=           0  read in
    real space projection operators read in
  non local Contribution for L=           1  read in
    real space projection operators read in
  non local Contribution for L=           1  read in
    real space projection operators read in
    PAW grid and wavefunctions read in
 
   number of l-projection  operators is LMAX  =           4
   number of lm-projection operators is LMMAX =           8
 
 POTCAR:    PAW_PBE Co 02Aug2007                  
   VRHFIN =Co: d8 s1                                                            
   LEXCH  = PE                                                                  
   EATOM  =   813.3670 eV,   59.7808 Ry                                         
                                                                                
   TITEL  = PAW_PBE Co 02Aug2007                                                
   LULTRA =        F    use ultrasoft PP ?                                      
   IUNSCR =        1    unscreen: 0-lin 1-nonlin 2-no                           
   RPACOR =    2.000    partial core radius                                     
   POMASS =   58.933; ZVAL   =    9.000    mass and valenz                      
   RCORE  =    2.300    outmost cutoff radius                                   
   RWIGS  =    2.460; RWIGS  =    1.302    wigner-seitz radius (au A)           
   ENMAX  =  267.968; ENMIN  =  200.976 eV                                      
   RCLOC  =    1.203    cutoff for local pot                                    
   LCOR   =        T    correct aug charges                                     
   LPAW   =        T    paw PP                                                  
   EAUG   =  477.818                                                            
   DEXC   =    0.000                                                            
   RMAX   =    2.360    core radius for proj-oper                               
   RAUG   =    1.300    factor for augmentation sphere                          
   RDEP   =    2.393    radius for radial grids                                 
   RDEPT  =    1.864    core radius for aug-charge                              
                                                                                
   Atomic configuration                                                         
    9 entries                                                                   
     n  l   j            E        occ.                                          
     1  0  0.50     -7587.6674   2.0000                                         
     2  0  0.50      -893.6084   2.0000                                         
     2  1  1.50      -764.5805   6.0000                                         
     3  0  0.50       -97.5973   2.0000                                         
     3  1  1.50       -60.9648   6.0000                                         
     3  2  2.50        -4.2382   8.0000                                         
     4  0  0.50        -4.3746   1.0000                                         
     4  1  1.50        -4.0817   0.0000                                         
     4  3  2.50        -1.3606   0.0000                                         
   Description                                                                  
     l       E           TYP  RCUT    TYP  RCUT                                 
     2     -4.2382362     23  2.300                                             
     2     -5.5988188     23  2.300                                             
     0     -4.3745797     23  2.300                                             
     0      5.7660125     23  2.300                                             
     1     -2.7211652     23  2.300                                             
     1     16.9860234     23  2.300                                             
  local pseudopotential read in
  partial core-charges read in
  partial kinetic energy density read in
  atomic valenz-charges read in
  non local Contribution for L=           2  read in
    real space projection operators read in
  non local Contribution for L=           2  read in
    real space projection operators read in
  non local Contribution for L=           0  read in
    real space projection operators read in
  non local Contribution for L=           0  read in
    real space projection operators read in
  non local Contribution for L=           1  read in
    real space projection operators read in
  non local Contribution for L=           1  read in
    real space projection operators read in
    PAW grid and wavefunctions read in
 
   number of l-projection  operators is LMAX  =           6
   number of lm-projection operators is LMMAX =          18
 
 POTCAR:    PAW_PBE H 15Jun2001                   
   VRHFIN =H: ultrasoft test                                                    
   LEXCH  = PE                                                                  
   EATOM  =    12.4884 eV,    0.9179 Ry                                         
                                                                                
   TITEL  = PAW_PBE H 15Jun2001                                                 
   LULTRA =        F    use ultrasoft PP ?                                      
   IUNSCR =        0    unscreen: 0-lin 1-nonlin 2-no                           
   RPACOR =    0.000    partial core radius                                     
   POMASS =    1.000; ZVAL   =    1.000    mass and valenz                      
   RCORE  =    1.100    outmost cutoff radius                                   
   RWIGS  =    0.700; RWIGS  =    0.370    wigner-seitz radius (au A)           
   ENMAX  =  250.000; ENMIN  =  200.000 eV                                      
   RCLOC  =    0.701    cutoff for local pot                                    
   LCOR   =        T    correct aug charges                                     
   LPAW   =        T    paw PP                                                  
   EAUG   =  400.000                                                            
   RMAX   =    1.123    core radius for proj-oper                               
   RAUG   =    1.200    factor for augmentation sphere                          
   RDEP   =    1.112    radius for radial grids                                 
   RDEPT  =    0.926    core radius for aug-charge                              
                                                                                
   Atomic configuration                                                         
    2 entries                                                                   
     n  l   j            E        occ.                                          
     1  0  0.50        -6.4927   1.0000                                         
     2  1  0.50        -3.4015   0.0000                                         
   Description                                                                  
     l       E           TYP  RCUT    TYP  RCUT                                 
     0     -6.4927494     23  1.100                                             
     0      6.8029130     23  1.100                                             
     1     -4.0817478     23  1.100                                             
  local pseudopotential read in
  atomic valenz-charges read in
  non local Contribution for L=           0  read in
    real space projection operators read in
  non local Contribution for L=           0  read in
    real space projection operators read in
  non local Contribution for L=           1  read in
    real space projection operators read in
    PAW grid and wavefunctions read in
 
   number of l-projection  operators is LMAX  =           3
   number of lm-projection operators is LMMAX =           5
 
 POTCAR:    PAW_PBE N 08Apr2002                   
   VRHFIN =N: s2p3                                                              
   LEXCH  = PE                                                                  
   EATOM  =   264.5486 eV,   19.4438 Ry                                         
                                                                                
   TITEL  = PAW_PBE N 08Apr2002                                                 
   LULTRA =        F    use ultrasoft PP ?                                      
   IUNSCR =        1    unscreen: 0-lin 1-nonlin 2-no                           
   RPACOR =    1.200    partial core radius                                     
   POMASS =   14.001; ZVAL   =    5.000    mass and valenz                      
   RCORE  =    1.500    outmost cutoff radius                                   
   RWIGS  =    1.400; RWIGS  =    0.741    wigner-seitz radius (au A)           
   ENMAX  =  400.000; ENMIN  =  300.000 eV                                      
   ICORE  =        2    local potential                                         
   LCOR   =        T    correct aug charges                                     
   LPAW   =        T    paw PP                                                  
   EAUG   =  627.112                                                            
   DEXC   =    0.000                                                            
   RMAX   =    1.529    core radius for proj-oper                               
   RAUG   =    1.300    factor for augmentation sphere                          
   RDEP   =    1.514    radius for radial grids                                 
   RDEPT  =    1.338    core radius for aug-charge                              
                                                                                
   Atomic configuration                                                         
    4 entries                                                                   
     n  l   j            E        occ.                                          
     1  0  0.50      -384.7179   2.0000                                         
     2  0  0.50       -18.5828   2.0000                                         
     2  1  0.50        -7.0898   3.0000                                         
     3  2  1.50        -6.8029   0.0000                                         
   Description                                                                  
     l       E           TYP  RCUT    TYP  RCUT                                 
     0    -18.5828119     23  1.200                                             
     0    -13.5018863     23  1.200                                             
     1     -7.0897853     23  1.500                                             
     1      9.5240782     23  1.500                                             
     2     -6.8029130      7  1.500                                             
  local pseudopotential read in
  partial core-charges read in
  partial kinetic energy density read in
  atomic valenz-charges read in
  non local Contribution for L=           0  read in
    real space projection operators read in
  non local Contribution for L=           0  read in
    real space projection operators read in
  non local Contribution for L=           1  read in
    real space projection operators read in
  non local Contribution for L=           1  read in
    real space projection operators read in
    PAW grid and wavefunctions read in
 
   number of l-projection  operators is LMAX  =           4
   number of lm-projection operators is LMMAX =           8
 
 POTCAR:    PAW_PBE O 08Apr2002                   
   VRHFIN =O: s2p4                                                              
   LEXCH  = PE                                                                  
   EATOM  =   432.3788 eV,   31.7789 Ry                                         
                                                                                
   TITEL  = PAW_PBE O 08Apr2002                                                 
   LULTRA =        F    use ultrasoft PP ?                                      
   IUNSCR =        1    unscreen: 0-lin 1-nonlin 2-no                           
   RPACOR =    1.200    partial core radius                                     
   POMASS =   16.000; ZVAL   =    6.000    mass and valenz                      
   RCORE  =    1.520    outmost cutoff radius                                   
   RWIGS  =    1.550; RWIGS  =    0.820    wigner-seitz radius (au A)           
   ENMAX  =  400.000; ENMIN  =  300.000 eV                                      
   ICORE  =        2    local potential                                         
   LCOR   =        T    correct aug charges                                     
   LPAW   =        T    paw PP                                                  
   EAUG   =  605.392                                                            
   DEXC   =    0.000                                                            
   RMAX   =    1.553    core radius for proj-oper                               
   RAUG   =    1.300    factor for augmentation sphere                          
   RDEP   =    1.550    radius for radial grids                                 
   RDEPT  =    1.329    core radius for aug-charge                              
                                                                                
   Atomic configuration                                                         
    4 entries                                                                   
     n  l   j            E        occ.                                          
     1  0  0.50      -514.6923   2.0000                                         
     2  0  0.50       -23.9615   2.0000                                         
     2  1  0.50        -9.0305   4.0000                                         
     3  2  1.50        -9.5241   0.0000                                         
   Description                                                                  
     l       E           TYP  RCUT    TYP  RCUT                                 
     0    -23.9615318     23  1.200                                             
     0     -9.5240782     23  1.200                                             
     1     -9.0304911     23  1.520                                             
     1      8.1634956     23  1.520                                             
     2     -9.5240782      7  1.500                                             
  local pseudopotential read in
  partial core-charges read in
  partial kinetic energy density read in
  kinetic energy density of atom read in
  atomic valenz-charges read in
  non local Contribution for L=           0  read in
    real space projection operators read in
  non local Contribution for L=           0  read in
    real space projection operators read in
  non local Contribution for L=           1  read in
    real space projection operators read in
  non local Contribution for L=           1  read in
    real space projection operators read in
    PAW grid and wavefunctions read in
 
   number of l-projection  operators is LMAX  =           4
   number of lm-projection operators is LMMAX =           8
 
 Optimization of the real space projectors (new method)

 maximal supplied QI-value         = 25.13
 optimisation between [QCUT,QGAM] = [ 12.32, 24.88] = [ 42.47,173.37] Ry 
 Optimized for a Real-space Cutoff    1.06 Angstroem

   l    n(q)    QCUT    max X(q) W(low)/X(q) W(high)/X(q)  e(spline) 
   0      8    12.315   115.676    0.34E-03    0.18E-03    0.23E-06
   0      8    12.315    87.132    0.34E-03    0.18E-03    0.22E-06
   1      7    12.315     4.429    0.45E-03    0.12E-03    0.18E-06
   1      7    12.315     2.733    0.35E-03    0.97E-04    0.15E-06
 Optimization of the real space projectors (new method)

 maximal supplied QI-value         = 16.25
 optimisation between [QCUT,QGAM] = [ 12.51, 25.03] = [ 43.85,175.40] Ry 
 Optimized for a Real-space Cutoff    1.31 Angstroem

   l    n(q)    QCUT    max X(q) W(low)/X(q) W(high)/X(q)  e(spline) 
   2      9    12.514    65.824    0.30E-03    0.46E-03    0.43E-06
   2      9    12.514    61.429    0.31E-03    0.46E-03    0.44E-06
   0     10    12.514    56.174    0.90E-04    0.33E-03    0.30E-06
   0     10    12.514    31.263    0.81E-04    0.30E-03    0.28E-06
   1      9    12.514    19.828    0.38E-03    0.65E-04    0.24E-06
   1      9    12.514    15.139    0.32E-03    0.60E-04    0.20E-06
 Optimization of the real space projectors (new method)

 maximal supplied QI-value         = 34.20
 optimisation between [QCUT,QGAM] = [ 12.31, 24.97] = [ 42.46,174.58] Ry 
 Optimized for a Real-space Cutoff    1.00 Angstroem

   l    n(q)    QCUT    max X(q) W(low)/X(q) W(high)/X(q)  e(spline) 
   0      7    12.313    19.460    0.14E-03    0.42E-03    0.16E-06
   0      7    12.313    12.209    0.12E-03    0.40E-03    0.16E-06
   1      7    12.313     4.655    0.33E-03    0.59E-03    0.89E-07
 Optimization of the real space projectors (new method)

 maximal supplied QI-value         = 25.13
 optimisation between [QCUT,QGAM] = [ 12.32, 24.88] = [ 42.47,173.37] Ry 
 Optimized for a Real-space Cutoff    1.20 Angstroem

   l    n(q)    QCUT    max X(q) W(low)/X(q) W(high)/X(q)  e(spline) 
   0      9    12.315    79.467    0.14E-03    0.22E-04    0.37E-06
   0      9    12.315    66.151    0.14E-03    0.23E-04    0.36E-06
   1      8    12.315    22.077    0.30E-03    0.54E-03    0.45E-06
   1      8    12.315    15.894    0.30E-03    0.55E-03    0.45E-06
 Optimization of the real space projectors (new method)

 maximal supplied QI-value         = 24.76
 optimisation between [QCUT,QGAM] = [ 12.38, 25.00] = [ 42.90,175.06] Ry 
 Optimized for a Real-space Cutoff    1.13 Angstroem

   l    n(q)    QCUT    max X(q) W(low)/X(q) W(high)/X(q)  e(spline) 
   0      8    12.378    20.381    0.16E-03    0.54E-05    0.27E-06
   0      8    12.378    15.268    0.17E-03    0.61E-05    0.29E-06
   1      8    12.378     5.964    0.38E-03    0.23E-03    0.28E-06
   1      8    12.378     5.382    0.33E-03    0.20E-03    0.25E-06
  PAW_PBE C 08Apr2002                   :
 energy of atom  1       EATOM= -147.1560
 kinetic energy error for atom=    0.0057 (will be added to EATOM!!)
  PAW_PBE Co 02Aug2007                  :
 energy of atom  2       EATOM= -813.3670
 kinetic energy error for atom=    0.0018 (will be added to EATOM!!)
  PAW_PBE H 15Jun2001                   :
 energy of atom  3       EATOM=  -12.4884
 kinetic energy error for atom=    0.0004 (will be added to EATOM!!)
  PAW_PBE N 08Apr2002                   :
 energy of atom  4       EATOM= -264.5486
 kinetic energy error for atom=    0.0103 (will be added to EATOM!!)
  PAW_PBE O 08Apr2002                   :
 energy of atom  5       EATOM= -432.3788
 kinetic energy error for atom=    0.0168 (will be added to EATOM!!)
 
 
 POSCAR: Co_C                                    
  positions in direct lattice
  velocities in cartesian coordinates
 exchange correlation table for  LEXCH =        8
   RHO(1)=    0.500       N(1)  =     2000
   RHO(2)=  100.500       N(2)  =     4000
 


--------------------------------------------------------------------------------------------------------


 ion  position               nearest neighbor table
   1  0.902  0.958  0.141- 107 1.08 117 1.34  65 1.40
   2  0.800  0.951  0.432- 112 1.09 118 1.36  65 1.40
   3  0.903  0.798  0.908- 116 1.08 119 1.34  66 1.40
   4  0.598  0.458  0.637- 110 1.08 120 1.34  67 1.40
   5  0.699  0.305  0.114- 111 1.09 121 1.35  68 1.40
   6  0.189  0.805  0.117- 115 1.09 122 1.36  69 1.40
   7  0.700  0.451  0.929- 101 1.09 123 1.36  67 1.40
   8  0.596  0.298  0.405- 113 1.08 124 1.34  68 1.40
   9  0.312  0.452  0.429- 114 1.09 125 1.36  70 1.40
  10  0.087  0.798  0.409- 104 1.08 126 1.34  69 1.40
  11  0.188  0.952  0.932- 105 1.09 127 1.36  71 1.40
  12  0.310  0.304  0.613- 102 1.09 128 1.36  72 1.40
  13  0.801  0.805  0.616- 108 1.09 129 1.36  66 1.40
  14  0.086  0.958  0.640- 109 1.08 130 1.34  71 1.40
  15  0.412  0.298  0.905- 106 1.08 131 1.34  72 1.40
  16  0.414  0.458  0.137- 103 1.08 132 1.34  70 1.40
  17  0.716  0.032  0.133- 141 1.23 133 1.42  33 1.48
  18  0.844  0.050  0.459- 142 1.23 133 1.41  34 1.48
  19  0.846  0.706  0.588- 143 1.23 134 1.41  35 1.48
  20  0.656  0.549  0.957- 144 1.23 135 1.41  36 1.48
  21  0.654  0.206  0.086- 145 1.23 136 1.41  37 1.48
  22  0.274  0.724  0.416- 146 1.23 137 1.42  38 1.48
  23  0.783  0.532  0.631- 147 1.23 135 1.42  39 1.48
  24  0.781  0.224  0.412- 148 1.23 136 1.42  40 1.48
  25  0.228  0.532  0.128- 149 1.23 138 1.42  41 1.48
  26  0.147  0.706  0.090- 150 1.23 137 1.41  42 1.48
  27  0.146  0.050  0.957- 151 1.23 139 1.41  43 1.48
  28  0.352  0.205  0.588- 152 1.23 140 1.41  44 1.48
  29  0.718  0.724  0.914- 153 1.23 134 1.42  45 1.48
  30  0.273  0.032  0.632- 154 1.23 139 1.42  46 1.48
  31  0.225  0.224  0.914- 155 1.23 140 1.42  47 1.48
  32  0.354  0.550  0.454- 156 1.23 138 1.41  48 1.48
  33  0.700  0.077  0.126-  49 1.39  73 1.42  17 1.48
  34  0.825  0.094  0.446-  50 1.39  73 1.42  18 1.48
  35  0.827  0.661  0.600-  51 1.39  74 1.42  19 1.48
  36  0.675  0.594  0.944-  52 1.39  75 1.42  20 1.48
  37  0.672  0.161  0.100-  53 1.39  76 1.42  21 1.48
  38  0.295  0.680  0.421-  54 1.39  77 1.42  22 1.48
  39  0.800  0.577  0.625-  55 1.39  75 1.42  23 1.48
  40  0.798  0.179  0.419-  56 1.39  76 1.42  24 1.48
  41  0.207  0.577  0.123-  57 1.39  78 1.42  25 1.48
  42  0.171  0.661  0.101-  58 1.39  77 1.42  26 1.48
  43  0.169  0.095  0.944-  59 1.39  79 1.42  27 1.48
  44  0.329  0.161  0.601-  60 1.39  80 1.42  28 1.48
  45  0.702  0.679  0.920-  61 1.39  74 1.42  29 1.48
  46  0.294  0.076  0.625-  62 1.39  79 1.42  30 1.48
  47  0.205  0.180  0.920-  63 1.39  80 1.42  31 1.48
  48  0.332  0.595  0.443-  64 1.39  78 1.42  32 1.48
  49  0.632  0.089  0.964-  88 1.09  33 1.39  53 1.41
  50  0.880  0.124  0.594-  99 1.09  34 1.39  56 1.40
  51  0.881  0.632  0.451-  93 1.09  35 1.39  55 1.41
  52  0.621  0.624  0.093-  90 1.09  36 1.39  61 1.40
  53  0.618  0.131  0.951-  98 1.09  37 1.39  49 1.41
  54  0.365  0.667  0.582-  96 1.09  38 1.39  64 1.41
  55  0.867  0.589  0.463-  86 1.09  39 1.39  51 1.41
  56  0.866  0.166  0.581-  87 1.09  40 1.39  50 1.40
  57  0.137  0.589  0.962-  95 1.09  41 1.39  58 1.41
  58  0.119  0.631  0.951-  91 1.09  42 1.39  57 1.41
  59  0.117  0.125  0.093-  92 1.09  43 1.39  63 1.41
  60  0.381  0.131  0.452-  85 1.09  44 1.39  62 1.41
  61  0.634  0.666  0.081-  89 1.09  45 1.39  52 1.40
  62  0.364  0.089  0.464- 100 1.09  46 1.39  60 1.41
  63  0.135  0.167  0.081-  94 1.09  47 1.39  59 1.41
  64  0.384  0.625  0.592-  97 1.09  48 1.39  54 1.41
  65  0.823  0.979  0.293-   1 1.40   2 1.40 133 1.43
  66  0.824  0.777  0.755-   3 1.40  13 1.40 134 1.42
  67  0.677  0.478  0.790-   4 1.40   7 1.40 135 1.42
  68  0.675  0.277  0.252-   8 1.40   5 1.40 136 1.42
  69  0.166  0.777  0.256-  10 1.40   6 1.40 137 1.43
  70  0.335  0.479  0.289-  16 1.40   9 1.40 138 1.43
  71  0.165  0.979  0.793-  14 1.40  11 1.40 139 1.43
  72  0.333  0.277  0.753-  15 1.40  12 1.40 140 1.43
  73  0.756  0.106  0.279-  33 1.42  34 1.42  76 1.43
  74  0.758  0.649  0.766-  45 1.42  35 1.42  75 1.43
  75  0.744  0.606  0.779-  39 1.42  36 1.42  74 1.43
  76  0.742  0.149  0.266-  40 1.42  37 1.42  73 1.43
  77  0.242  0.650  0.266-  38 1.42  42 1.42  78 1.43
  78  0.260  0.607  0.278-  41 1.42  48 1.42  77 1.43
  79  0.240  0.107  0.779-  46 1.42  43 1.42  80 1.43
  80  0.258  0.149  0.766-  47 1.42  44 1.42  79 1.43
  81  0.035  0.878  0.025- 117 1.96 119 1.96 127 1.97 122 1.97
  82  0.954  0.878  0.524- 126 1.96 130 1.96 129 1.97 118 1.97
  83  0.464  0.378  0.521- 124 1.96 120 1.96 125 1.97 128 1.97
  84  0.545  0.378  0.021- 131 1.96 132 1.96 123 1.97 121 1.97
  85  0.436  0.140  0.326-  60 1.09
  86  0.908  0.566  0.346-  55 1.09
  87  0.907  0.190  0.698-  56 1.09
  88  0.591  0.066  0.847-  49 1.09
  89  0.593  0.690  0.199-  61 1.09
  90  0.568  0.613  0.220-  52 1.09
  91  0.064  0.641  0.826-  58 1.09
  92  0.063  0.115  0.219-  59 1.09
  93  0.934  0.642  0.325-  51 1.09
  94  0.096  0.191  0.198-  63 1.09
  95  0.098  0.565  0.844-  57 1.09
  96  0.404  0.691  0.700-  54 1.09
  97  0.438  0.615  0.718-  64 1.09
  98  0.565  0.142  0.825-  53 1.09
  99  0.933  0.114  0.721-  50 1.09
 100  0.403  0.065  0.347-  62 1.09
 101  0.753  0.455  0.073-   7 1.09
 102  0.257  0.300  0.470-  12 1.09
 103  0.453  0.468  0.001-  16 1.08
 104  0.047  0.787  0.544-  10 1.08
 105  0.242  0.956  0.076-  11 1.09
 106  0.452  0.287  0.040-  15 1.08
 107  0.942  0.969  0.007-   1 1.08
 108  0.747  0.800  0.473-  13 1.09
 109  0.046  0.969  0.505-  14 1.08
 110  0.558  0.468  0.502-   4 1.08
 111  0.753  0.300  0.971-   5 1.09
 112  0.746  0.955  0.575-   2 1.09
 113  0.556  0.287  0.539-   8 1.08
 114  0.258  0.456  0.572-   9 1.09
 115  0.242  0.800  0.974-   6 1.09
 116  0.943  0.787  0.043-   3 1.08
 117  0.927  0.920  0.187-   1 1.34 118 1.37  81 1.96
 118  0.863  0.915  0.365-   2 1.36 117 1.37  82 1.97
 119  0.927  0.836  0.862-   3 1.34 129 1.37  81 1.96
 120  0.573  0.420  0.683-   4 1.34 123 1.37  83 1.96
 121  0.635  0.340  0.180-   5 1.35 124 1.37  84 1.97
 122  0.125  0.840  0.183-   6 1.36 126 1.37  81 1.97
 123  0.636  0.415  0.862-   7 1.36 120 1.37  84 1.97
 124  0.572  0.336  0.359-   8 1.34 121 1.37  83 1.96
 125  0.375  0.416  0.363-   9 1.36 132 1.37  83 1.97
 126  0.062  0.836  0.362-  10 1.34 122 1.37  82 1.96
 127  0.125  0.916  0.866-  11 1.36 130 1.37  81 1.97
 128  0.374  0.340  0.679-  12 1.36 131 1.37  83 1.97
 129  0.864  0.840  0.683-  13 1.36 119 1.37  82 1.97
 130  0.062  0.920  0.687-  14 1.34 127 1.37  82 1.96
 131  0.437  0.336  0.859-  15 1.34 128 1.37  84 1.96
 132  0.437  0.420  0.183-  16 1.34 125 1.37  84 1.96
 133  0.787  0.021  0.302-  18 1.41  17 1.42  65 1.43
 134  0.789  0.735  0.745-  19 1.41  29 1.42  66 1.42
 135  0.713  0.521  0.800-  20 1.41  23 1.42  67 1.42
 136  0.711  0.235  0.243-  21 1.41  24 1.42  68 1.42
 137  0.203  0.735  0.247-  26 1.41  22 1.42  69 1.43
 138  0.299  0.521  0.297-  32 1.41  25 1.42  70 1.43
 139  0.202  0.021  0.800-  27 1.41  30 1.42  71 1.43
 140  0.297  0.234  0.745-  28 1.41  31 1.42  72 1.43
 141  0.673  0.005  0.000-  17 1.23
 142  0.907  0.038  0.598-  18 1.23
 143  0.908  0.718  0.449-  19 1.23
 144  0.593  0.538  0.096-  20 1.23
 145  0.591  0.217  0.947-  21 1.23
 146  0.315  0.751  0.552-  22 1.23
 147  0.827  0.505  0.497-  23 1.23
 148  0.825  0.251  0.546-  24 1.23
 149  0.187  0.505  0.993-  25 1.23
 150  0.083  0.717  0.952-  26 1.23
 151  0.081  0.039  0.095-  27 1.23
 152  0.417  0.217  0.450-  28 1.23
 153  0.675  0.750  0.048-  29 1.23
 154  0.315  0.005  0.498-  30 1.23
 155  0.184  0.251  0.048-  31 1.23
 156  0.419  0.539  0.593-  32 1.23
 

IMPORTANT INFORMATION: All symmetrisations will be switched off!
NOSYMM: (Re-)initialisation of all symmetry stuff for point group C_1.

 
 

Automatic generation of k-mesh.
 generate k-points for:    3    1    4
Space group operators:
 irot       det(A)        alpha          n_x          n_y          n_z        tau_x        tau_y        tau_z
    1     1.000000     0.000000     1.000000     0.000000     0.000000     0.000000     0.000000     0.000000
 
 Subroutine IBZKPT returns following result:
 ===========================================
 
 Found      7 irreducible k-points:
 
 Following reciprocal coordinates:
            Coordinates               Weight
  0.000000  0.000000  0.000000      1.000000
  0.333333  0.000000 -0.000000      2.000000
  0.000000 -0.000000  0.250000      2.000000
  0.333333 -0.000000  0.250000      2.000000
 -0.333333 -0.000000  0.250000      2.000000
  0.000000 -0.000000  0.500000      1.000000
  0.333333 -0.000000  0.500000      2.000000
 
 Following cartesian coordinates:
            Coordinates               Weight
  0.000000  0.000000  0.000000      1.000000
  0.031993  0.000006  0.000020      2.000000
  0.000026  0.002853  0.038407      2.000000
  0.032020  0.002859  0.038427      2.000000
 -0.031967  0.002846  0.038387      2.000000
  0.000053  0.005705  0.076814      1.000000
  0.032046  0.005712  0.076834      2.000000
 


--------------------------------------------------------------------------------------------------------




 Dimension of arrays:
   k-points           NKPTS =      7   k-points in BZ     NKDIM =      7   number of bands    NBANDS=    384
   number of dos      NEDOS =    301   number of ions     NIONS =    156
   non local maximal  LDIM  =      6   non local SUM 2l+1 LMDIM =     18
   total plane-waves  NPLWV = 501760
   max r-space proj   IRMAX =   2171   max aug-charges    IRDMAX=   9149
   dimension x,y,z NGX =    64 NGY =  196 NGZ =   40
   dimension x,y,z NGXF=   128 NGYF=  392 NGZF=   80
   support grid    NGXF=   128 NGYF=  392 NGZF=   80
   ions per type =              80   4  32  24  16
   NGX,Y,Z   is equivalent  to a cutoff of  10.21,  9.97, 10.13 a.u.
   NGXF,Y,Z  is equivalent  to a cutoff of  20.42, 19.94, 20.25 a.u.

 SYSTEM =  flex_MOF                                
 POSCAR =  Co_C                                    

 Startparameter for this run:
   NWRITE =      2    write-flag & timer
   PREC   = normal    normal or accurate (medium, high low for compatibility)
   ISTART =      0    job   : 0-new  1-cont  2-samecut
   ICHARG =      2    charge: 1-file 2-atom 10-const
   ISPIN  =      2    spin polarized calculation?
   LNONCOLLINEAR =      F non collinear calculations
   LSORBIT =      F    spin-orbit coupling
   INIWAV =      1    electr: 0-lowe 1-rand  2-diag
   LASPH  =      F    aspherical Exc in radial PAW
   METAGGA=      F    non-selfconsistent MetaGGA calc.

 Electronic Relaxation 1
   ENCUT  =  600.0 eV  44.10 Ry    6.64 a.u.  20.81 65.29 13.12*2*pi/ulx,y,z
   ENINI  =  600.0     initial cutoff
   ENAUG  =  644.9 eV  augmentation charge cutoff
   NELM   =     80;   NELMIN=  8; NELMDL= -5     # of ELM steps 
   EDIFF  = 0.1E-05   stopping-criterion for ELM
   LREAL  =      T    real-space projection
   NLSPLINE    = F    spline interpolate recip. space projectors
   LCOMPAT=      F    compatible to vasp.4.4
   GGA_COMPAT  = T    GGA compatible to vasp.4.4-vasp.4.6
   LMAXPAW     = -100 max onsite density
   LMAXMIX     =    2 max onsite mixed and CHGCAR
   VOSKOWN=      0    Vosko Wilk Nusair interpolation
   ROPT   =   -0.00050  -0.00050  -0.00050  -0.00050
   ROPT   =   -0.00050
 Ionic relaxation
   EDIFFG = -.1E-01   stopping-criterion for IOM
   NSW    =    500    number of steps for IOM
   NBLOCK =      1;   KBLOCK =    500    inner block; outer block 
   IBRION =      2    ionic relax: 0-MD 1-quasi-New 2-CG
   NFREE  =      1    steps in history (QN), initial steepest desc. (CG)
   ISIF   =      4    stress and relaxation
   IWAVPR =     11    prediction:  0-non 1-charg 2-wave 3-comb
   ISYM   =      0    0-nonsym 1-usesym 2-fastsym
   LCORR  =      T    Harris-Foulkes like correction to forces

   POTIM  = 0.5000    time-step for ionic-motion
   TEIN   =    0.0    initial temperature
   TEBEG  =    0.0;   TEEND  =   0.0 temperature during run
   SMASS  =  -3.00    Nose mass-parameter (am)
   estimated Nose-frequenzy (Omega)   =  0.10E-29 period in steps =****** mass=  -0.248E-26a.u.
   SCALEE = 1.0000    scale energy and forces
   NPACO  =    256;   APACO  = 16.0  distance and # of slots for P.C.
   PSTRESS=    0.0 pullay stress

  Mass of Ions in am
   POMASS =  12.01 58.93  1.00 14.00 16.00
  Ionic Valenz
   ZVAL   =   4.00  9.00  1.00  5.00  6.00
  Atomic Wigner-Seitz radii
   RWIGS  =  -1.00 -1.00 -1.00 -1.00 -1.00
  virtual crystal weights 
   VCA    =   1.00  1.00  1.00  1.00  1.00
   NELECT =     604.0000    total number of electrons
   NUPDOWN=      -1.0000    fix difference up-down

 DOS related values:
   EMIN   =  10.00;   EMAX   =-10.00  energy-range for DOS
   EFERMI =   0.00
   ISMEAR =     0;   SIGMA  =   0.05  broadening in eV -4-tet -1-fermi 0-gaus

 Electronic relaxation 2 (details)
   IALGO  =     38    algorithm
   LDIAG  =      T    sub-space diagonalisation (order eigenvalues)
   LSUBROT=      F    optimize rotation matrix (better conditioning)
   TURBO    =      0    0=normal 1=particle mesh
   IRESTART =      0    0=no restart 2=restart with 2 vectors
   NREBOOT  =      0    no. of reboots
   NMIN     =      0    reboot dimension
   EREF     =   0.00    reference energy to select bands
   IMIX   =      4    mixing-type and parameters
     AMIX     =   0.40;   BMIX     =  1.00
     AMIX_MAG =   1.60;   BMIX_MAG =  1.00
     AMIN     =   0.10
     WC   =   100.;   INIMIX=   1;  MIXPRE=   1;  MAXMIX= -45

 Intra band minimization:
   WEIMIN = 0.0010     energy-eigenvalue tresh-hold
   EBREAK =  0.65E-09  absolut break condition
   DEPER  =   0.30     relativ break condition  

   TIME   =   0.40     timestep for ELM

  volume/ion in A,a.u.               =      14.17        95.64
  Fermi-wavevector in a.u.,A,eV,Ry     =   1.062256  2.007373 15.352645  1.128388
  Thomas-Fermi vector in A             =   2.197700
 
 Write flags
   LWAVE        =      T    write WAVECAR
   LDOWNSAMPLE  =      F    k-point downsampling of WAVECAR
   LCHARG       =      T    write CHGCAR
   LVTOT        =      F    write LOCPOT, total local potential
   LVHAR        =      F    write LOCPOT, Hartree potential only
   LELF         =      F    write electronic localiz. function (ELF)
   LORBIT       =     11    0 simple, 1 ext, 2 COOP (PROOUT), +10 PAW based schemes


 Dipole corrections
   LMONO  =      F    monopole corrections only (constant potential shift)
   LDIPOL =      F    correct potential (dipole corrections)
   IDIPOL =      0    1-x, 2-y, 3-z, 4-all directions 
   EPSILON=  1.0000000 bulk dielectric constant

 Exchange correlation treatment:
   GGA     =    PE    GGA type
   LEXCH   =     8    internal setting for exchange type
   VOSKOWN=      0    Vosko Wilk Nusair interpolation
   LHFCALC =     F    Hartree Fock is set to
   LHFONE  =     F    Hartree Fock one center treatment
   AEXX    =    0.0000 exact exchange contribution

 Linear response parameters
   LEPSILON=     F    determine dielectric tensor
   LRPA    =     F    only Hartree local field effects (RPA)
   LNABLA  =     F    use nabla operator in PAW spheres
   LVEL    =     F    velocity operator in full k-point grid
   LINTERFAST=   F  fast interpolation
   KINTER  =     0    interpolate to denser k-point grid
   CSHIFT  =0.1000    complex shift for real part using Kramers Kronig
   OMEGAMAX=  -1.0    maximum frequency
   DEG_THRESHOLD= 0.2000000E-02 threshold for treating states as degnerate
   RTIME   =   -0.100 relaxation time in fs
  (WPLASMAI=    0.000 imaginary part of plasma frequency in eV, 0.658/RTIME)
   DFIELD  = 0.0000000 0.0000000 0.0000000 field for delta impulse in time
 
 Orbital magnetization related:
   ORBITALMAG=     F  switch on orbital magnetization
   LCHIMAG   =     F  perturbation theory with respect to B field
   DQ        =  0.001000  dq finite difference perturbation B field
   LLRAUG    =     F  two centre corrections for induced B field



--------------------------------------------------------------------------------------------------------


 conjugate gradient relaxation of ions
 charge density and potential will be updated during run
 spin polarized calculation
 Variant of blocked Davidson
 Davidson routine will perform the subspace rotation
 perform sub-space diagonalisation
    after iterative eigenvector-optimisation
 modified Broyden-mixing scheme, WC =      100.0
 initial mixing is a Kerker type mixing with AMIX =  0.4000 and BMIX =      1.0000
 Hartree-type preconditioning will be used
 using additional bands           82
 real space projection scheme for non local part
 use partial core corrections
 calculate Harris-corrections to forces 
   (improved forces if not selfconsistent)
 use gradient corrections 
 use of overlap-Matrix (Vanderbilt PP)
 Gauss-broadening in eV      SIGMA  =   0.05


--------------------------------------------------------------------------------------------------------


  energy-cutoff  :      600.00
  volume of cell :     2210.92
      direct lattice vectors                 reciprocal lattice vectors
    10.418828909 -0.002929764 -0.006959951     0.095980122  0.000019003  0.000059363
    -0.004956964 32.600637047 -2.421379680     0.000010298  0.030854545  0.002427444
    -0.003947585 -0.515114085  6.547483259     0.000105835  0.011410598  0.153628217

  length of vectors
    10.418831646 32.690436522  6.567716128     0.095980142  0.030949887  0.154051426


 
 k-points in units of 2pi/SCALE and weight: read from INCAR                         
   0.00000000  0.00000000  0.00000000       0.083
   0.03199337  0.00000633  0.00001979       0.167
   0.00002646  0.00285265  0.03840705       0.167
   0.03201983  0.00285898  0.03842684       0.167
  -0.03196692  0.00284632  0.03838727       0.167
   0.00005292  0.00570530  0.07681411       0.083
   0.03204629  0.00571163  0.07683390       0.167
 
 k-points in reciprocal lattice and weights: read from INCAR                         
   0.00000000  0.00000000  0.00000000       0.083
   0.33333333  0.00000000 -0.00000000       0.167
   0.00000000 -0.00000000  0.25000000       0.167
   0.33333333 -0.00000000  0.25000000       0.167
  -0.33333333 -0.00000000  0.25000000       0.167
   0.00000000 -0.00000000  0.50000000       0.083
   0.33333333 -0.00000000  0.50000000       0.167
 
 position of ions in fractional coordinates (direct lattice) 
   0.90238411  0.95782003  0.14093466
   0.79952772  0.95103689  0.43156624
   0.90306730  0.79803565  0.90786971
   0.59768866  0.45754328  0.63712130
   0.69864726  0.30457920  0.11387998
   0.18880618  0.80458200  0.11699761
   0.69985217  0.45086623  0.92890983
   0.59566803  0.29788863  0.40453809
   0.31177187  0.45167758  0.42882619
   0.08672809  0.79799895  0.40853408
   0.18826890  0.95161617  0.93217299
   0.31021134  0.30429129  0.61311173
   0.80061811  0.80458523  0.61618954
   0.08589852  0.95796603  0.64020198
   0.41248310  0.29786336  0.90506862
   0.41364186  0.45790668  0.13667007
   0.71644930  0.03170345  0.13346868
   0.84406523  0.04979166  0.45930038
   0.84566018  0.70600582  0.58775049
   0.65601647  0.54943771  0.95703583
   0.65367859  0.20585593  0.08619404
   0.27418113  0.72438383  0.41615517
   0.78320371  0.53165279  0.63115471
   0.78126832  0.22393138  0.41211784
   0.22763263  0.53180533  0.12826679
   0.14748005  0.70573542  0.08980554
   0.14620745  0.05049455  0.95674812
   0.35203346  0.20538292  0.58800233
   0.71841885  0.72374252  0.91363884
   0.27336649  0.03157750  0.63166470
   0.22528902  0.22427021  0.91360636
   0.35444200  0.55047967  0.45445578
   0.70005545  0.07653129  0.12588300
   0.82537317  0.09425474  0.44561434
   0.82712261  0.66149325  0.60042452
   0.67466902  0.59393741  0.94431730
   0.67245370  0.16139630  0.09976426
   0.29525672  0.67964766  0.42116806
   0.79964719  0.57652740  0.62460610
   0.79783999  0.17910520  0.41949279
   0.20695626  0.57655724  0.12274964
   0.17053019  0.66134647  0.10125042
   0.16894529  0.09484834  0.94397068
   0.32944527  0.16102227  0.60087060
   0.70205792  0.67887295  0.92008093
   0.29385167  0.07630046  0.62499939
   0.20473403  0.17955424  0.92006833
   0.33171996  0.59487042  0.44257226
   0.63220856  0.08919000  0.96395946
   0.87955113  0.12417293  0.59425068
   0.88117446  0.63170337  0.45135901
   0.62063577  0.62371749  0.09342113
   0.61836339  0.13147279  0.95107837
   0.36523421  0.66730324  0.58177084
   0.86739764  0.58937365  0.46327409
   0.86576119  0.16645175  0.58135974
   0.13719036  0.58890154  0.96191719
   0.11895337  0.63112181  0.95136604
   0.11700989  0.12515611  0.09272188
   0.38130676  0.13070601  0.45205345
   0.63435825  0.66603984  0.08147303
   0.36350527  0.08851725  0.46394988
   0.13498651  0.16733904  0.08100496
   0.38351452  0.62508604  0.59225819
   0.82268377  0.97872646  0.29297521
   0.82390377  0.77696133  0.75509329
   0.67722740  0.47848832  0.78974410
   0.67523924  0.27691357  0.25248571
   0.16599729  0.77696587  0.25616883
   0.33496068  0.47917385  0.28917735
   0.16521396  0.97913123  0.79252395
   0.33319679  0.27673575  0.75260070
   0.75574932  0.10637418  0.27941699
   0.75765634  0.64918008  0.76608380
   0.74409778  0.60623459  0.77860199
   0.74213036  0.14927537  0.26592861
   0.24207973  0.64953584  0.26632146
   0.26017023  0.60668343  0.27750204
   0.24041977  0.10652439  0.77873632
   0.25812018  0.14934230  0.76625133
   0.03532237  0.87803253  0.02468392
   0.95381785  0.87790831  0.52413549
   0.46361463  0.37783725  0.52102468
   0.54518207  0.37780805  0.02099237
   0.43565505  0.14046081  0.32607936
   0.90846492  0.56581228  0.34614249
   0.90688199  0.19012790  0.69810081
   0.59109558  0.06551737  0.84718404
   0.59330642  0.68960582  0.19858429
   0.56783397  0.61342080  0.21953255
   0.06445058  0.64097182  0.82561860
   0.06251262  0.11539042  0.21850756
   0.93402135  0.64198805  0.32525243
   0.09560303  0.19128249  0.19795504
   0.09795626  0.56504008  0.84416149
   0.40448559  0.69116899  0.69950679
   0.43808220  0.61522187  0.71790115
   0.56538614  0.14160699  0.82453701
   0.93250754  0.11402702  0.72077679
   0.40290245  0.06457468  0.34700955
   0.75345136  0.45507555  0.07251780
   0.25650616  0.29997623  0.46959679
   0.45320635  0.46846862  0.00133171
   0.04723149  0.78728672  0.54354102
   0.24197240  0.95597833  0.07569668
   0.45210882  0.28720503  0.04026629
   0.94224826  0.96869012  0.00655455
   0.74705930  0.80031368  0.47255512
   0.04620143  0.96859691  0.50498883
   0.55814381  0.46835125  0.50223679
   0.75250932  0.30036605  0.97076806
   0.74559203  0.95520499  0.57461410
   0.55570855  0.28706201  0.53896745
   0.25843081  0.45611432  0.57246786
   0.24240112  0.80033285  0.97360964
   0.94283226  0.78727980  0.04272630
   0.92679962  0.91987911  0.18685030
   0.86328812  0.91538781  0.36518597
   0.92709297  0.83600930  0.86201145
   0.57285943  0.41964172  0.68326754
   0.63517969  0.34028102  0.18024836
   0.12525437  0.84027445  0.18325290
   0.63597958  0.41521612  0.86226844
   0.57157406  0.33584628  0.35856458
   0.37456867  0.41583060  0.36267175
   0.06219141  0.83590740  0.36218893
   0.12483436  0.91584958  0.86613738
   0.37371641  0.34003838  0.67929830
   0.86379557  0.84035578  0.68305468
   0.06163114  0.92007209  0.68690080
   0.43686189  0.33576359  0.85851915
   0.43749867  0.41998238  0.18332698
   0.78724843  0.02106938  0.30226121
   0.78893901  0.73456972  0.74527431
   0.71265645  0.52084807  0.79956777
   0.71050994  0.23456610  0.24330208
   0.20273748  0.73473240  0.24730762
   0.29888286  0.52146013  0.29734581
   0.20180816  0.02137766  0.80049689
   0.29656272  0.23448990  0.74450468
   0.67288253  0.00490575  0.00011165
   0.90700513  0.03819901  0.59842500
   0.90836422  0.71777353  0.44905372
   0.59324521  0.53770603  0.09576397
   0.59067963  0.21746994  0.94719587
   0.31478011  0.75132665  0.55153783
   0.82652192  0.50496562  0.49728309
   0.82469128  0.25071903  0.54567537
   0.18673932  0.50485087  0.99319131
   0.08261832  0.71698785  0.95187967
   0.08133942  0.03936078  0.09476291
   0.41671323  0.21653206  0.44981953
   0.67495982  0.75040280  0.04753418
   0.31453019  0.00452115  0.49760163
   0.18441605  0.25130133  0.04805528
   0.41918105  0.53925115  0.59257390
 
 position of ions in cartesian coordinates  (Angst):
   9.39648139 31.15030209 -1.40275919
   8.32372460 30.77976035  0.51728664
   9.40136396 25.54616828  4.00562913
   6.22243273 14.58626109  3.05949519
   7.27712694  9.86876788  0.00326283
   1.96268916 26.16906533 -1.18347268
   7.28573809 14.21798137  4.98543231
   6.20308974  9.50123058  1.92325911
   3.24436598 14.50316892  1.71187947
   0.89803678 25.80457831  0.74200800
   1.95314452 30.54256620  3.79785265
   3.22811021  9.60335869  3.27537496
   8.33508235 25.91023760  2.08071212
   0.88768612 30.90027410  1.87151445
   4.29254154  9.24311308  5.20181051
   4.30685447 14.85643693 -0.21679984
   7.46387868  0.96270198  0.79213142
   8.79211124  1.38417493  2.88082234
   8.80496890 22.71100350  2.13289258
   6.82842184 17.41711473  4.93121294
   6.80920475  6.66471969  0.06134909
   2.85141278 23.40020371  0.96885244
   8.15493858 17.00480842  2.83969059
   8.13716408  7.08572892  2.15067421
   2.36852291 17.27045366 -0.44946228
   1.53271662 22.96073200 -1.12187961
   1.51928329  1.15289174  6.14100823
   3.66443715  6.39169446  3.35017522
   7.47788883 23.12173417  4.22457944
   2.84550858  0.70326637  4.05745030
   2.34252954  6.84008015  5.43721104
   3.68834784 17.71085299  1.64015445
   7.29288161  2.42807359  0.63403317
   8.59719555  2.84080423  2.68368138
   8.61199973 21.25339099  2.32378641
   7.02258923 18.87433007  4.74005808
   7.00498623  5.20826210  0.25772284
   3.07119771 21.93913212  1.10985084
   8.32606376 18.47107437  2.68804074
   8.31001458  5.62051945  2.30738743
   2.15289931 18.73229685 -0.59380318
   1.77304694 21.50766114 -0.93962236
   1.75601552  2.60536869  5.94979251
   3.42926373  4.93894643  3.54200122
   7.30762412 21.65568703  4.37551905
   3.05874486  2.16463683  3.90537547
   2.12856669  5.37904269  5.58793809
   3.45143762 19.16420772  1.45501857
   6.58262542  2.40924959  6.09114540
   9.16093140  3.73943286  3.58405494
   9.17589282 20.35884931  1.41953889
   6.46283735 20.28364677 -0.90290319
   6.43821617  3.79437125  5.90452037
   3.79970835 21.45376217  2.19079832
   9.03251734 18.97277623  1.60014490
   9.01709767  5.12443013  3.39737460
   1.42264652 18.70266629  4.87122766
   1.23247076 20.08456241  4.70003976
   1.21811963  4.03206364  0.30323015
   3.97033742  4.02712299  2.64066964
   6.60564695 21.66949653 -1.08370713
   3.78502895  2.64566663  2.82084021
   1.40525204  5.41323712  0.12424773
   3.99033568 20.07199904  2.36156072
   8.56539344 31.75378021 -0.45734394
   8.57728023 24.93806142  3.05690793
   7.05042699 15.19023157  4.00752094
   7.03283274  8.89552152  0.97793344
   1.72463473 25.19713987 -0.20522356
   3.48638120 15.47143202  0.73079071
   1.71335388 31.51157753  2.81703893
   3.46717762  8.63311026  4.25523911
   7.87239251  3.32172009  1.56664581
   7.88764965 20.76684398  3.43873611
   7.74654879 19.36038494  3.62478047
   7.73033954  4.72731433  1.37454556
   2.51791627 21.03738706  0.16927758
   2.70656639 19.63455897  0.34611827
   2.50129024  3.07092042  4.83915370
   2.68554487  4.47319096  4.65360684
   0.36356788 28.61160138 -1.96467845
   9.93124415 28.34758609  1.29938049
   4.82639180 12.04798948  2.49328621
   5.67820310 12.30437240 -0.78116397
   4.53703195  4.40986758  1.79185805
   9.46096946 18.26487636  0.88999293
   9.44495003  5.83603216  4.10411966
   6.15485465  1.69777966  5.38416689
   6.17735582 22.37755715 -0.37369957
   5.91225768 19.88316081 -0.05189103
   0.66506312 20.47061322  3.85323922
   0.64987374  3.64906161  1.15083550
   9.72694240 20.75894074  0.56858730
   0.99434194  6.13368148  0.83227441
   1.01445618 17.98554004  4.15827491
   4.20807867 22.17103847  2.90361125
   4.55841985 19.68554036  3.20771098
   5.88670461  4.19009095  5.05182292
   9.71222601  3.34333910  4.43668104
   4.19608178  1.92524586  2.11287519
   7.84753870 14.79619055 -0.63234558
   2.66915301  9.53676886  2.34653551
   4.71955199 15.27036170 -1.12877534
   0.48604856 25.38592445  1.65217695
   2.51603151 31.12580119 -1.82084785
   4.70886183  9.34100053 -0.43493621
   9.81229582 31.57377820 -2.30920875
   7.77765049 25.84512727  1.15098394
   0.47457004 31.31661423  0.96074344
   5.81090062 15.00820456  2.15044610
   7.83494481  9.28986363  5.62354994
   7.76119258 30.84211483  1.44417299
   5.78628175  9.07914648  2.82992657
   2.68802559 14.57397392  2.64199912
   2.51772514 25.58913061  4.43509601
   9.81913684 25.64105193 -1.63311563
   9.65086928 29.88968062 -1.01042787
   8.98847205 29.65158418  0.16853914
   9.65167611 26.80768550  3.61325705
   5.96374699 13.32694820  3.45358378
   6.61543020 10.99866854  0.35180278
   1.30011523 27.29871935 -0.83564993
   6.62070036 13.09028009  4.63586593
   5.95205215 10.76242640  1.53050612
   3.89907396 13.36842772  1.36509647
   0.64238837 27.06436286  0.34694394
   1.29266887 29.41075447  3.45253158
   3.88932024 10.73445689  3.62173116
   8.99287628 27.04175201  2.43145672
   0.63485198 29.64092346  2.26919865
   4.54653584 10.50259184  4.80508810
   4.55541829 13.59597700  0.18034854
   8.20090909  0.52886965  1.92255402
   8.21323729 23.56122826  3.09550788
   7.41930747 16.56602226  3.96902563
   7.40055829  7.51959444  1.02009758
   2.10766883 23.82475862 -0.16123467
   3.11025077 16.84588992  0.68213356
   2.09933872  0.28398681  5.18807197
   3.08573487  7.26014631  4.30477877
   7.01062322  0.15790172 -0.01583086
   9.44737956  0.93439762  3.81937064
   9.45876074 23.16589926  1.19584731
   6.17787691 17.47849170 -0.67910644
   6.14937293  6.60001424  5.67106072
   3.27373856 24.20870034  1.78974679
   8.60692426 16.20362183  2.02748669
   8.58892048  7.89009884  2.95997456
   1.93918178 15.94630605  5.27916813
   0.85347448 22.88369208  4.49574133
   0.84689230  1.23413454  0.52458505
   4.33881479  6.82615399  2.41797920
   7.02838348 24.43714619 -1.51047854
   3.27504948 -0.10985070  3.24490178
   1.91996390  8.16728915 -0.29513833
   4.36236331 17.27345967  2.57121846
 


--------------------------------------------------------------------------------------------------------


 k-point  1 :   0.0000 0.0000 0.0000  plane waves:   73829
 k-point  2 :   0.3333 0.0000-0.0000  plane waves:   73751
 k-point  3 :   0.0000-0.0000 0.2500  plane waves:   73764
 k-point  4 :   0.3333-0.0000 0.2500  plane waves:   73822
 k-point  5 :  -0.3333-0.0000 0.2500  plane waves:   73813
 k-point  6 :   0.0000-0.0000 0.5000  plane waves:   73822
 k-point  7 :   0.3333-0.0000 0.5000  plane waves:   73823

 maximum and minimum number of plane-waves per node :     18498    18400

 maximum number of plane-waves:     73829
 maximum index in each direction: 
   IXMAX=   21   IYMAX=   65   IZMAX=   13
   IXMIN=  -21   IYMIN=  -65   IZMIN=  -13


 real space projection operators:
  total allocation   :      11514.83 KBytes
  max/ min on nodes  :       2880.07       2876.49


 parallel 3D FFT for wavefunctions:
    minimum data exchange during FFTs selected (reduces bandwidth)
 parallel 3D FFT for charge:
    minimum data exchange during FFTs selected (reduces bandwidth)


 total amount of memory used by VASP MPI-rank0   109555. kBytes
=======================================================================

   base      :      30000. kBytes
   nonlr-proj:       9176. kBytes
   fftplans  :       5028. kBytes
   grid      :      13475. kBytes
   one-center:       1213. kBytes
   wavefun   :      50663. kBytes
 
     INWAV:  cpu time    0.0001: real time    0.0006
 Broyden mixing: mesh for mixing (old mesh)
   NGX = 41   NGY =131   NGZ = 27
  (NGX  =128   NGY  =392   NGZ  = 80)
  gives a total of 145017 points

 initial charge density was supplied:
 charge density of overlapping atoms calculated
 number of electron     604.0000000 magnetization       0.0000000
 keeping initial charge density in first step


--------------------------------------------------------------------------------------------------------


 Maximum index for non-local projection operator          530
 Maximum index for augmentation-charges          443 (set IRDMAX)


--------------------------------------------------------------------------------------------------------


 First call to EWALD:  gamma=   0.136
 Maximum number of real-space cells 3x 1x 5
 Maximum number of reciprocal cells 2x 6x 2

    FEWALD:  cpu time    0.0156: real time    0.0156


--------------------------------------- Iteration      1(   1)  ---------------------------------------


    POTLOK:  cpu time    0.2176: real time    0.2592
    SETDIJ:  cpu time    0.0647: real time    0.0653
     EDDAV:  cpu time   29.6712: real time   29.7758
       DOS:  cpu time    0.0057: real time    0.0059
    --------------------------------------------
      LOOP:  cpu time   29.9592: real time   30.1063

 eigenvalue-minimisations  : 10752
 total energy-change (2. order) : 0.4769647E+04  (-0.3046251E+05)
 number of electron     604.0000000 magnetization       0.0000000
 augmentation part      604.0000000 magnetization       0.0000000

 Free energy of the ion-electron system (eV)
  ---------------------------------------------------
  alpha Z        PSCENC =       764.07476415
  Ewald energy   TEWEN  =      -328.87712324
  -Hartree energ DENC   =    -25364.77667191
  -exchange      EXHF   =         0.00000000
  -V(xc)+E(xc)   XCENC  =      2117.70555198
  PAW double counting   =     22087.95224925   -22402.63741193
  entropy T*S    EENTRO =        -0.02976034
  eigenvalues    EBANDS =      -795.57497370
  atomic energy  EATOM  =     28691.81066055
  Solvation  Ediel_sol  =         0.00000000
  ---------------------------------------------------
  free energy    TOTEN  =      4769.64728479 eV

  energy without entropy =     4769.67704514  energy(sigma->0) =     4769.66216497


--------------------------------------------------------------------------------------------------------




--------------------------------------- Iteration      1(   2)  ---------------------------------------


     EDDAV:  cpu time   35.3349: real time   35.3818
       DOS:  cpu time    0.0084: real time    0.0084
    --------------------------------------------
      LOOP:  cpu time   35.3433: real time   35.3902

 eigenvalue-minimisations  : 13536
 total energy-change (2. order) :-0.5395673E+04  (-0.5196248E+04)
 number of electron     604.0000000 magnetization       0.0000000
 augmentation part      604.0000000 magnetization       0.0000000

 Free energy of the ion-electron system (eV)
  ---------------------------------------------------
  alpha Z        PSCENC =       764.07476415
  Ewald energy   TEWEN  =      -328.87712324
  -Hartree energ DENC   =    -25364.77667191
  -exchange      EXHF   =         0.00000000
  -V(xc)+E(xc)   XCENC  =      2117.70555198
  PAW double counting   =     22087.95224925   -22402.63741193
  entropy T*S    EENTRO =        -0.00000218
  eigenvalues    EBANDS =     -6191.27780284
  atomic energy  EATOM  =     28691.81066055
  Solvation  Ediel_sol  =         0.00000000
  ---------------------------------------------------
  free energy    TOTEN  =      -626.02578618 eV

  energy without entropy =     -626.02578400  energy(sigma->0) =     -626.02578509


--------------------------------------------------------------------------------------------------------




--------------------------------------- Iteration      1(   3)  ---------------------------------------


     EDDAV:  cpu time   34.8160: real time   34.8566
       DOS:  cpu time    0.0048: real time    0.0048
    --------------------------------------------
      LOOP:  cpu time   34.8208: real time   34.8614

 eigenvalue-minimisations  : 12800
 total energy-change (2. order) :-0.6451412E+03  (-0.6371883E+03)
 number of electron     604.0000000 magnetization       0.0000000
 augmentation part      604.0000000 magnetization       0.0000000

 Free energy of the ion-electron system (eV)
  ---------------------------------------------------
  alpha Z        PSCENC =       764.07476415
  Ewald energy   TEWEN  =      -328.87712324
  -Hartree energ DENC   =    -25364.77667191
  -exchange      EXHF   =         0.00000000
  -V(xc)+E(xc)   XCENC  =      2117.70555198
  PAW double counting   =     22087.95224925   -22402.63741193
  entropy T*S    EENTRO =        -0.07310654
  eigenvalues    EBANDS =     -6836.34586250
  atomic energy  EATOM  =     28691.81066055
  Solvation  Ediel_sol  =         0.00000000
  ---------------------------------------------------
  free energy    TOTEN  =     -1271.16695020 eV

  energy without entropy =    -1271.09384366  energy(sigma->0) =    -1271.13039693


--------------------------------------------------------------------------------------------------------




--------------------------------------- Iteration      1(   4)  ---------------------------------------


     EDDAV:  cpu time   37.8088: real time   37.8552
       DOS:  cpu time    0.0049: real time    0.0049
    --------------------------------------------
      LOOP:  cpu time   37.8137: real time   37.8601

 eigenvalue-minimisations  : 14048
 total energy-change (2. order) :-0.2275924E+02  (-0.2256626E+02)
 number of electron     604.0000000 magnetization       0.0000000
 augmentation part      604.0000000 magnetization       0.0000000

 Free energy of the ion-electron system (eV)
  ---------------------------------------------------
  alpha Z        PSCENC =       764.07476415
  Ewald energy   TEWEN  =      -328.87712324
  -Hartree energ DENC   =    -25364.77667191
  -exchange      EXHF   =         0.00000000
  -V(xc)+E(xc)   XCENC  =      2117.70555198
  PAW double counting   =     22087.95224925   -22402.63741193
  entropy T*S    EENTRO =        -0.08428724
  eigenvalues    EBANDS =     -6859.09391791
  atomic energy  EATOM  =     28691.81066055
  Solvation  Ediel_sol  =         0.00000000
  ---------------------------------------------------
  free energy    TOTEN  =     -1293.92618631 eV

  energy without entropy =    -1293.84189907  energy(sigma->0) =    -1293.88404269


--------------------------------------------------------------------------------------------------------




--------------------------------------- Iteration      1(   5)  ---------------------------------------


     EDDAV:  cpu time   38.0565: real time   38.0986
       DOS:  cpu time    0.0052: real time    0.0052
    CHARGE:  cpu time    1.0224: real time    1.0255
    MIXING:  cpu time    0.0105: real time    0.0117
    --------------------------------------------
      LOOP:  cpu time   39.0945: real time   39.1409

 eigenvalue-minimisations  : 14848
 total energy-change (2. order) :-0.7368517E+00  (-0.7353879E+00)
 number of electron     603.9999933 magnetization      -0.0000461
 augmentation part       36.9789130 magnetization      -0.0012409

 Broyden mixing:
  rms(total) = 0.85956E+01    rms(broyden)= 0.85950E+01
  rms(prec ) = 0.91214E+01
  weight for this iteration     100.00

 Free energy of the ion-electron system (eV)
  ---------------------------------------------------
  alpha Z        PSCENC =       764.07476415
  Ewald energy   TEWEN  =      -328.87712324
  -Hartree energ DENC   =    -25364.77667191
  -exchange      EXHF   =         0.00000000
  -V(xc)+E(xc)   XCENC  =      2117.70555198
  PAW double counting   =     22087.95224925   -22402.63741193
  entropy T*S    EENTRO =        -0.08393902
  eigenvalues    EBANDS =     -6859.83111783
  atomic energy  EATOM  =     28691.81066055
  Solvation  Ediel_sol  =         0.00000000
  ---------------------------------------------------
  free energy    TOTEN  =     -1294.66303801 eV

  energy without entropy =    -1294.57909899  energy(sigma->0) =    -1294.62106850


--------------------------------------------------------------------------------------------------------




--------------------------------------- Iteration      1(   6)  ---------------------------------------


    POTLOK:  cpu time    0.1711: real time    0.1711
    SETDIJ:  cpu time    0.0683: real time    0.0683
     EDDAV:  cpu time   42.5768: real time   42.6719
       DOS:  cpu time    0.0051: real time    0.0051
    CHARGE:  cpu time    0.9915: real time    0.9929
    MIXING:  cpu time    0.0084: real time    0.0118
    --------------------------------------------
      LOOP:  cpu time   43.8213: real time   43.9211

 eigenvalue-minimisations  : 16384
 total energy-change (2. order) :-0.2161852E+03  (-0.2558925E+03)
 number of electron     603.9999902 magnetization      -0.0014898
 augmentation part       57.0737915 magnetization       0.1595532

 Broyden mixing:
  rms(total) = 0.21866E+02    rms(broyden)= 0.21866E+02
  rms(prec ) = 0.22106E+02
  weight for this iteration     100.00

 eigenvalues of (default mixing * dielectric matrix)
  average eigenvalue GAMMA=   0.1012
  0.1012

 Free energy of the ion-electron system (eV)
  ---------------------------------------------------
  alpha Z        PSCENC =       764.07476415
  Ewald energy   TEWEN  =      -328.87712324
  -Hartree energ DENC   =    -25890.39323692
  -exchange      EXHF   =         0.00000000
  -V(xc)+E(xc)   XCENC  =      2154.81218120
  PAW double counting   =     32808.32353955   -33033.93026087
  entropy T*S    EENTRO =        -0.03455055
  eigenvalues    EBANDS =     -6676.63423486
  atomic energy  EATOM  =     28691.81066055
  Solvation  Ediel_sol  =         0.00000000
  ---------------------------------------------------
  free energy    TOTEN  =     -1510.84826099 eV

  energy without entropy =    -1510.81371043  energy(sigma->0) =    -1510.83098571


--------------------------------------------------------------------------------------------------------




--------------------------------------- Iteration      1(   7)  ---------------------------------------


    POTLOK:  cpu time    0.1676: real time    0.1676
    SETDIJ:  cpu time    0.0614: real time    0.0614
     EDDAV:  cpu time   34.2605: real time   34.2985
       DOS:  cpu time    0.0053: real time    0.0053
    CHARGE:  cpu time    0.9875: real time    0.9887
    MIXING:  cpu time    0.0055: real time    0.0072
    --------------------------------------------
      LOOP:  cpu time   35.4877: real time   35.5287

 eigenvalue-minimisations  : 12352
 total energy-change (2. order) : 0.9158474E+02  (-0.2128123E+02)
 number of electron     603.9999907 magnetization       0.0006149
 augmentation part       55.0210685 magnetization       0.0591798

 Broyden mixing:
  rms(total) = 0.14357E+02    rms(broyden)= 0.14357E+02
  rms(prec ) = 0.14675E+02
  weight for this iteration     100.00

 eigenvalues of (default mixing * dielectric matrix)
  average eigenvalue GAMMA=   0.4775
  0.4775  0.4775

 Free energy of the ion-electron system (eV)
  ---------------------------------------------------
  alpha Z        PSCENC =       764.07476415
  Ewald energy   TEWEN  =      -328.87712324
  -Hartree energ DENC   =    -25986.01536550
  -exchange      EXHF   =         0.00000000
  -V(xc)+E(xc)   XCENC  =      2157.45125790
  PAW double counting   =     34252.60534471   -34506.30426241
  entropy T*S    EENTRO =        -0.09409212
  eigenvalues    EBANDS =     -6463.91470871
  atomic energy  EATOM  =     28691.81066055
  Solvation  Ediel_sol  =         0.00000000
  ---------------------------------------------------
  free energy    TOTEN  =     -1419.26352468 eV

  energy without entropy =    -1419.16943256  energy(sigma->0) =    -1419.21647862


--------------------------------------------------------------------------------------------------------




--------------------------------------- Iteration      1(   8)  ---------------------------------------


    POTLOK:  cpu time    0.1686: real time    0.1692
    SETDIJ:  cpu time    0.0612: real time    0.0612
     EDDAV:  cpu time   40.6754: real time   40.7191
       DOS:  cpu time    0.0054: real time    0.0054
    CHARGE:  cpu time    0.9877: real time    0.9891
    MIXING:  cpu time    0.0054: real time    0.0061
    --------------------------------------------
      LOOP:  cpu time   41.9038: real time   41.9501

 eigenvalue-minimisations  : 15296
 total energy-change (2. order) : 0.2574173E+03  (-0.4866065E+02)
 number of electron     603.9999912 magnetization      -0.0016438
 augmentation part       48.0080444 magnetization       0.0269619

 Broyden mixing:
  rms(total) = 0.33543E+01    rms(broyden)= 0.33540E+01
  rms(prec ) = 0.37743E+01
  weight for this iteration     100.00

 eigenvalues of (default mixing * dielectric matrix)
  average eigenvalue GAMMA=   0.5116
  0.5124  0.5111  0.5111

 Free energy of the ion-electron system (eV)
  ---------------------------------------------------
  alpha Z        PSCENC =       764.07476415
  Ewald energy   TEWEN  =      -328.87712324
  -Hartree energ DENC   =    -26203.26587048
  -exchange      EXHF   =         0.00000000
  -V(xc)+E(xc)   XCENC  =      2167.76686670
  PAW double counting   =     39547.55702634   -39881.90838027
  entropy T*S    EENTRO =        -0.04375153
  eigenvalues    EBANDS =     -5918.96041332
  atomic energy  EATOM  =     28691.81066055
  Solvation  Ediel_sol  =         0.00000000
  ---------------------------------------------------
  free energy    TOTEN  =     -1161.84622112 eV

  energy without entropy =    -1161.80246958  energy(sigma->0) =    -1161.82434535


--------------------------------------------------------------------------------------------------------




--------------------------------------- Iteration      1(   9)  ---------------------------------------


    POTLOK:  cpu time    0.1659: real time    0.1667
    SETDIJ:  cpu time    0.0619: real time    0.0618
     EDDAV:  cpu time   39.5401: real time   39.5851
       DOS:  cpu time    0.0055: real time    0.0055
    CHARGE:  cpu time    0.9853: real time    0.9866
    MIXING:  cpu time    0.0052: real time    0.0052
    --------------------------------------------
      LOOP:  cpu time   40.7637: real time   40.8108

 eigenvalue-minimisations  : 15296
 total energy-change (2. order) :-0.1707880E+02  (-0.5144548E+02)
 number of electron     603.9999935 magnetization      -0.0241930
 augmentation part       37.7878939 magnetization       0.3281669

 Broyden mixing:
  rms(total) = 0.53795E+01    rms(broyden)= 0.53793E+01
  rms(prec ) = 0.58564E+01
  weight for this iteration     100.00

 eigenvalues of (default mixing * dielectric matrix)
  average eigenvalue GAMMA=   0.4808
  0.7356  0.4076  0.3900  0.3900

 Free energy of the ion-electron system (eV)
  ---------------------------------------------------
  alpha Z        PSCENC =       764.07476415
  Ewald energy   TEWEN  =      -328.87712324
  -Hartree energ DENC   =    -26395.45849291
  -exchange      EXHF   =         0.00000000
  -V(xc)+E(xc)   XCENC  =      2176.52089369
  PAW double counting   =     43371.54590020   -43722.75826373
  entropy T*S    EENTRO =        -0.06619990
  eigenvalues    EBANDS =     -5735.71715590
  atomic energy  EATOM  =     28691.81066055
  Solvation  Ediel_sol  =         0.00000000
  ---------------------------------------------------
  free energy    TOTEN  =     -1178.92501711 eV

  energy without entropy =    -1178.85881721  energy(sigma->0) =    -1178.89191716


--------------------------------------------------------------------------------------------------------




--------------------------------------- Iteration      1(  10)  ---------------------------------------


    POTLOK:  cpu time    0.1661: real time    0.1661
    SETDIJ:  cpu time    0.0617: real time    0.0617
     EDDAV:  cpu time   37.5139: real time   37.5554
       DOS:  cpu time    0.0056: real time    0.0055
    CHARGE:  cpu time    0.9855: real time    0.9865
    MIXING:  cpu time    0.0054: real time    0.0054
    --------------------------------------------
      LOOP:  cpu time   38.7382: real time   38.7807

 eigenvalue-minimisations  : 14656
 total energy-change (2. order) : 0.1043911E+02  (-0.2959703E+02)
 number of electron     603.9999918 magnetization      -0.1107583
 augmentation part       44.3555843 magnetization       1.8517611

 Broyden mixing:
  rms(total) = 0.34422E+01    rms(broyden)= 0.34421E+01
  rms(prec ) = 0.37049E+01
  weight for this iteration     100.00

 eigenvalues of (default mixing * dielectric matrix)
  average eigenvalue GAMMA=   0.4542
  0.7687  0.4209  0.4209  0.4655  0.1947

 Free energy of the ion-electron system (eV)
  ---------------------------------------------------
  alpha Z        PSCENC =       764.07476415
  Ewald energy   TEWEN  =      -328.87712324
  -Hartree energ DENC   =    -26488.00836047
  -exchange      EXHF   =         0.00000000
  -V(xc)+E(xc)   XCENC  =      2183.12019414
  PAW double counting   =     47388.05096846   -47733.09416408
  entropy T*S    EENTRO =        -0.04798221
  eigenvalues    EBANDS =     -5645.51486438
  atomic energy  EATOM  =     28691.81066055
  Solvation  Ediel_sol  =         0.00000000
  ---------------------------------------------------
  free energy    TOTEN  =     -1168.48590709 eV

  energy without entropy =    -1168.43792488  energy(sigma->0) =    -1168.46191599


--------------------------------------------------------------------------------------------------------




--------------------------------------- Iteration      1(  11)  ---------------------------------------


    POTLOK:  cpu time    0.1667: real time    0.1667
    SETDIJ:  cpu time    0.0619: real time    0.0619
     EDDAV:  cpu time   39.3785: real time   39.4224
       DOS:  cpu time    0.0051: real time    0.0051
    CHARGE:  cpu time    0.9829: real time    0.9841
    MIXING:  cpu time    0.0055: real time    0.0055
    --------------------------------------------
      LOOP:  cpu time   40.6006: real time   40.6457

 eigenvalue-minimisations  : 15488
 total energy-change (2. order) :-0.1660843E+02  (-0.1915803E+02)
 number of electron     603.9999950 magnetization      -0.1434813
 augmentation part       42.9530219 magnetization      -2.2681530

 Broyden mixing:
  rms(total) = 0.64137E+01    rms(broyden)= 0.64137E+01
  rms(prec ) = 0.70711E+01
  weight for this iteration     100.00

 eigenvalues of (default mixing * dielectric matrix)
  average eigenvalue GAMMA=   0.4836
  1.2024  0.4352  0.4352  0.4255  0.2945  0.1091

 Free energy of the ion-electron system (eV)
  ---------------------------------------------------
  alpha Z        PSCENC =       764.07476415
  Ewald energy   TEWEN  =      -328.87712324
  -Hartree energ DENC   =    -26542.15254047
  -exchange      EXHF   =         0.00000000
  -V(xc)+E(xc)   XCENC  =      2186.56379542
  PAW double counting   =     49052.26776119   -49397.15510676
  entropy T*S    EENTRO =        -0.03539367
  eigenvalues    EBANDS =     -5611.59115506
  atomic energy  EATOM  =     28691.81066055
  Solvation  Ediel_sol  =         0.00000000
  ---------------------------------------------------
  free energy    TOTEN  =     -1185.09433789 eV

  energy without entropy =    -1185.05894422  energy(sigma->0) =    -1185.07664105


--------------------------------------------------------------------------------------------------------




--------------------------------------- Iteration      1(  12)  ---------------------------------------


    POTLOK:  cpu time    0.1660: real time    0.1660
    SETDIJ:  cpu time    0.0617: real time    0.0617
     EDDAV:  cpu time   38.7552: real time   38.8024
       DOS:  cpu time    0.0052: real time    0.0052
    CHARGE:  cpu time    1.0360: real time    1.0370
    MIXING:  cpu time    0.0056: real time    0.0056
    --------------------------------------------
      LOOP:  cpu time   40.0297: real time   40.0778

 eigenvalue-minimisations  : 15008
 total energy-change (2. order) : 0.1441192E+02  (-0.2336209E+02)
 number of electron     603.9999917 magnetization      -0.1511583
 augmentation part       44.9677518 magnetization       0.2951777

 Broyden mixing:
  rms(total) = 0.42479E+01    rms(broyden)= 0.42478E+01
  rms(prec ) = 0.46097E+01
  weight for this iteration     100.00

 eigenvalues of (default mixing * dielectric matrix)
  average eigenvalue GAMMA=   0.5179
  1.6230  0.4352  0.4352  0.3677  0.3677  0.3154  0.0808

 Free energy of the ion-electron system (eV)
  ---------------------------------------------------
  alpha Z        PSCENC =       764.07476415
  Ewald energy   TEWEN  =      -328.87712324
  -Hartree energ DENC   =    -26668.26348693
  -exchange      EXHF   =         0.00000000
  -V(xc)+E(xc)   XCENC  =      2194.15232976
  PAW double counting   =     53150.81238336   -53496.15142732
  entropy T*S    EENTRO =        -0.00011054
  eigenvalues    EBANDS =     -5478.24040643
  atomic energy  EATOM  =     28691.81066055
  Solvation  Ediel_sol  =         0.00000000
  ---------------------------------------------------
  free energy    TOTEN  =     -1170.68241665 eV

  energy without entropy =    -1170.68230611  energy(sigma->0) =    -1170.68236138


--------------------------------------------------------------------------------------------------------




--------------------------------------- Iteration      1(  13)  ---------------------------------------


    POTLOK:  cpu time    0.1666: real time    0.1666
    SETDIJ:  cpu time    0.0614: real time    0.0614
     EDDAV:  cpu time   39.5413: real time   39.5897
       DOS:  cpu time    0.0053: real time    0.0053
    CHARGE:  cpu time    0.9880: real time    0.9888
    MIXING:  cpu time    0.0057: real time    0.0057
    --------------------------------------------
      LOOP:  cpu time   40.7684: real time   40.8176

 eigenvalue-minimisations  : 15232
 total energy-change (2. order) : 0.3034979E+01  (-0.1866478E+02)
 number of electron     603.9999910 magnetization      -0.1190156
 augmentation part       44.8082218 magnetization      -1.4475140

 Broyden mixing:
  rms(total) = 0.36788E+01    rms(broyden)= 0.36788E+01
  rms(prec ) = 0.38273E+01
  weight for this iteration     100.00

 eigenvalues of (default mixing * dielectric matrix)
  average eigenvalue GAMMA=   0.5110
  1.8641  0.4303  0.4303  0.4253  0.4253  0.3354  0.1050  0.0722

 Free energy of the ion-electron system (eV)
  ---------------------------------------------------
  alpha Z        PSCENC =       764.07476415
  Ewald energy   TEWEN  =      -328.87712324
  -Hartree energ DENC   =    -26714.25791571
  -exchange      EXHF   =         0.00000000
  -V(xc)+E(xc)   XCENC  =      2196.38901809
  PAW double counting   =     54663.59483743   -55009.17979154
  entropy T*S    EENTRO =        -0.01061798
  eigenvalues    EBANDS =     -5431.19126920
  atomic energy  EATOM  =     28691.81066055
  Solvation  Ediel_sol  =         0.00000000
  ---------------------------------------------------
  free energy    TOTEN  =     -1167.64743746 eV

  energy without entropy =    -1167.63681949  energy(sigma->0) =    -1167.64212847


--------------------------------------------------------------------------------------------------------




[...]
   80            fft3d_mpi                            33.801321                     6440   5
   81              fftbas_plan_mpi                      33.776030                   6440   6
   82                dfftw_execute                        15.243649                19320   7
   83                map_forward                          14.985645                12880   7
   84                  map_gather                            3.980464               6440   8
   85                  m_alltoallv_z                         3.380988               6440   8
   86                  map_scatter                           4.787410               6440   8
   87          pw_charge                             3.834665                       6440   4
   88          fft3d_mpi                             0.347946                         92   4
   89            fftbas_plan_mpi                       0.312313                       92   5
   90              dfftw_execute                         0.112755                    276   6
   91              map_backward                          0.150594                    184   6
   92                map_gather                            0.059370                  184   7
   93                m_alltoallv_z                         0.085890                  184   7
   94                map_scatter                           0.003203                  184   7
   95        depsum                                0.160283                           46   3
   96        fft3d_mpi                             0.417049                           92   3
   97          fftbas_plan_mpi                       0.408172                         92   4
   98            dfftw_execute                         0.059301                      276   5
   99            map_backward                          0.280947                      184   5
  100              map_gather                            0.011421                     92   6
  101              m_alltoallv_z                         0.244558                     92   6
  102              map_scatter                           0.023521                     92   6
  103      brmix                                 0.519976                             46   2
  104        brpre                                 0.005722                           92   3
  105        setg0                                 0.061378                           48   3
  106        broyd                                 0.341162                           46   3
  107          brsav                                 0.010802                       1386   4
  108          brget                                 0.042528                       6429   4
  109      force_and_stress                     26.614165                              1   2
  110        set_charge                            0.981475                            1   3
  111          soft_charge                           0.933770                          1   4
  112            fftwav_mpi                            0.815811                      140   5
  113              fft3d_mpi                             0.732291                    140   6
  114                fftbas_plan_mpi                       0.731706                  140   7
  115                  dfftw_execute                         0.333490                420   8
  116                  map_forward                           0.320356                280   8
  117                    map_gather                            0.086132              140   9
  118                    m_alltoallv_z                         0.068883              140   9
  119                    map_scatter                           0.104546              140   9
  120            pw_charge                             0.085026                      140   5
  121            fft3d_mpi                             0.007220                        2   5
  122              fftbas_plan_mpi                       0.006494                      2   6
  123                dfftw_execute                         0.002385                    6   7
  124                map_backward                          0.003016                    4   7
  125                  map_gather                            0.001224                  4   8
  126                  m_alltoallv_z                         0.001682                  4   8
  127                  map_scatter                           0.000066                  4   8
  128          depsum                                0.003459                          1   4
  129          fft3d_mpi                             0.007963                          2   4
  130            fftbas_plan_mpi                       0.007739                        2   5
  131              dfftw_execute                         0.001224                      6   6
  132              map_backward                          0.004925                      4   6
  133                map_gather                            0.000232                    2   7
  134                m_alltoallv_z                         0.004052                    2   7
  135                map_scatter                           0.000604                    2   7
  136        forloc                                0.100448                            1   3
  137        fornlr                                4.183827                            1   3
  138          rspher_all                            0.086642                          3   4
  139          phaser                                0.284368                         21   4
  140          rpro_isp                              3.786453                         21   4
  141            fftwav_mpi                            2.924370                      504   5
  142              fft3d_mpi                             2.608182                    504   6
  143                fftbas_plan_mpi                       2.606171                  504   7
  144                  dfftw_execute                         1.199116               1512   8
  145                  map_forward                           1.131929               1008   8
  146                    map_gather                            0.301946              504   9
  147                    m_alltoallv_z                         0.245239              504   9
  148                    map_scatter                           0.367673              504   9
  149            rpromu                                0.857725                      126   5
  150              crrexp_mul_wave                       0.428987                  78624   6
  151              rpromu_gemm                           0.278741                  19656   6
  152        fordep                                0.274417                            1   3
  153          setdij_                               0.273883                          6   4
  154        setdij_                               0.616644                           20   3
  155        set_dd_paw                            0.030357                            1   3
  156        strkin                                0.022717                            1   3
  157        strelo                                0.004587                            1   3
  158        strnlr                               12.953906                            1   3
  159          rspher_all                            0.258159                          9   4
  160          phaser                                0.855482                         63   4
  161          rpro_isp                             11.266166                         63   4
  162            fftwav_mpi                            8.684223                     1512   5
  163              fft3d_mpi                             7.805415                   1512   6
  164                fftbas_plan_mpi                       7.799853                 1512   7
  165                  dfftw_execute                         3.601755               4536   8
  166                  map_forward                           3.377981               3024   8
  167                    map_gather                            0.905305             1512   9
  168                    m_alltoallv_z                         0.725332             1512   9
  169                    map_scatter                           1.100616             1512   9
  170            rpromu                                2.565472                      378   5
  171              crrexp_mul_wave                       1.291014                 235872   6
  172              rpromu_gemm                           0.839470                  58968   6
  173        fft3d_mpi                             0.072163                           22   3
  174          fftbas_plan_mpi                       0.070019                         22   4
  175            dfftw_execute                         0.014125                       66   5
  176            map_forward                           0.017721                       20   5
  177              map_gather                            0.001378                     10   6
  178              m_alltoallv_z                         0.014516                     10   6
  179              map_scatter                           0.001664                     10   6
  180            map_backward                          0.022377                       24   5
  181              map_gather                            0.001499                     12   6
  182              m_alltoallv_z                         0.017726                     12   6
  183              map_scatter                           0.002956                     12   6
  184        forhar                                0.188156                            2   3
  185        strehar                               0.005030                            1   3
  186        chggra                                0.013571                            1   3
  187          fft3d_mpi                             0.010426                          3   4
  188            fftbas_plan_mpi                       0.010157                        3   5
  189              dfftw_execute                         0.001902                      9   6
  190              map_forward                           0.004403                      4   6
  191                map_gather                            0.000275                    2   7
  192                m_alltoallv_z                         0.003788                    2   7
  193                map_scatter                           0.000307                    2   7
  194              map_backward                          0.001746                      2   6
  195                map_gather                            0.000128                    1   7
  196                m_alltoallv_z                         0.001398                    1   7
  197                map_scatter                           0.000202                    1   7
  198        brmix                                 0.018166                            1   3
  199          brpre                                 0.000076                          2   4
  200          setg0                                 0.001274                          1   4
  201          broyd                                 0.014074                          1   4
  202            brget                                 0.001720                      255   5
  203            brsav                                 0.000344                       46   5
 
 Flat profile
 ============
 
             routine name                   CPU           calls
 ---------------------------------------------------------------
 eddav                                 759.526061          51
 total_time                            365.419716           1
 dfftw_execute                         216.289799      272862
 redis_pw                              165.803190       82180
 orth1                                 127.433652       89460
 map_scatter                            69.803968       91144
 map_gather                             62.222236       91144
 redis_proj                             57.503086      103390
 m_alltoallv_z                          57.411756       91144
 fftbas_plan_mpi                        50.728266       90956
 fftwav_mpi                             49.883599       59724
 crrexp_mul_work_add                    41.378132     4643184
 racc0                                  38.965217       29764
 map_forward                            33.380289      120826
 vhamil                                 27.788673       29764
 rpro1                                  25.488306       21196
 lincom                                 21.243533         728
 crrexp_mul_wave                        19.717906     3647280
 phaser                                 10.912748         805
 w1_copy                                 8.410855       89292
 force_and_stress                        7.148701           1
 eccp                                    6.280680        8568
 fftext_mpi                              6.132988       29764
 pw_charge                               3.919691        6580
 kinhamil                                3.755943       29764
 setdij_                                 2.421792          75
 apply_precond                           2.191380       21196
 soft_charge                             1.960401          47
 overl                                   1.775737       50974
 set_charge                              1.734312          47
 set_dd_paw                              1.493192          49
 setup_precond                           1.340847        8568
 overl1                                  1.337370       29764
 rpromu_gemm                             1.238639       85176
 rpromu                                  0.634546         546
 map_backward                            0.613932       61082
 strnlr                                  0.574099           1
 fft3d_mpi                               0.557193       90954
 hamiltmu                                0.453639       29764
 rspher_all                              0.394618          14
 broyd                                   0.299843          47
 choleski                                0.289438          14
 raccmu_                                 0.201107       29764
 forhar                                  0.188156           2
 depsum                                  0.163742          47
 orthch                                  0.159410           1
 w1_projall                              0.128521       21196
 brmix                                   0.114456          47
 forloc                                  0.100448           1
 setg0                                   0.062652          49
 brget                                   0.044248        6684
 truncate_high_frequency_w1              0.028227       38332
 fornlr                                  0.026364           1
 rpro_isp                                0.022918          91
 strkin                                  0.022717           1
 brsav                                   0.011145        1432
 brpre                                   0.005798          94
 strehar                                 0.005030           1
 strelo                                  0.004587           1
 chggra                                  0.003145           1
 fordep                                  0.000534           1
 brgrid                                  0.000392           1
 redis_pw_over_bands                     0.000000           1
 ---------------------------------------------------------------
  summed up times    2257.15356397629     
 
 Accumulative profile
 ====================
 
             routine name                   CPU           calls
 ---------------------------------------------------------------
 total_time                           2257.153564           1
 eddav                                1808.016355          51
 fft3d_mpi                             490.945820       90954
 fftbas_plan_mpi                       490.450246       90956
 fftwav_mpi                            386.417856       59724
 hamiltmu                              269.276707       29764
 dfftw_execute                         216.289799      272862
 redis_pw                              165.803190       82180
 map_forward                           161.658502      120826
 kinhamil                              159.152570       29764
 fftext_mpi                            155.396627       29764
 orth1                                 127.433652       89460
 raccmu_                                81.881825       29764
 racc0                                  80.343349       29764
 map_scatter                            69.803968       91144
 map_gather                             62.222236       91144
 map_backward                           61.773679       61082
 redis_proj                             57.503086      103390
 m_alltoallv_z                          57.411756       91144
 set_charge                             47.043936          47
 soft_charge                            44.720871          47
 w1_projall                             43.475178       21196
 rpro1                                  43.346657       21196
 crrexp_mul_work_add                    41.378132     4643184
 vhamil                                 27.788673       29764
 force_and_stress                       26.614165           1
 lincom                                 21.243533         728
 crrexp_mul_wave                        19.717906     3647280
 rpro_isp                               16.383182          91
 strnlr                                 12.953906           1
 phaser                                 10.912748         805
 w1_copy                                 8.410855       89292
 eccp                                    6.280680        8568
 fornlr                                  4.183827           1
 pw_charge                               3.919691        6580
 rpromu                                  3.732740         546
 setdij_                                 2.421792          75
 apply_precond                           2.191380       21196
 overl                                   1.775737       50974
 orthch                                  1.701312           1
 set_dd_paw                              1.493192          49
 setup_precond                           1.340847        8568
 overl1                                  1.337370       29764
 rpromu_gemm                             1.238639       85176
 brmix                                   0.538142          47
 rspher_all                              0.394618          14
 broyd                                   0.355236          47
 choleski                                0.289438          14
 fordep                                  0.274417           1
 forhar                                  0.188156           2
 depsum                                  0.163742          47
 forloc                                  0.100448           1
 setg0                                   0.062652          49
 brget                                   0.044248        6684
 truncate_high_frequency_w1              0.028227       38332
 strkin                                  0.022717           1
 chggra                                  0.013571           1
 brsav                                   0.011145        1432
 brpre                                   0.005798          94
 strehar                                 0.005030           1
 strelo                                  0.004587           1
 brgrid                                  0.000392           1
 redis_pw_over_bands                     0.000000           1
 ---------------------------------------------------------------
 
Profiling took   5.795595  3.276898  0.012848  0.012492 seconds
Profiling took   6.778039 seconds
