       N       E                     dE             d eps       ncg     rms          rms(c)
RMM:   1     0.821133693375E+04    0.82113E+04   -0.22207E+05  1200   0.124E+03
RMM:   2     0.313197516126E+04   -0.50794E+04   -0.67298E+04  1200   0.278E+02
RMM:   3     0.102876061125E+04   -0.21032E+04   -0.29234E+04  1200   0.181E+02
RMM:   4    -0.366985145691E+03   -0.13957E+04   -0.13961E+04  1200   0.152E+02
RMM:   5    -0.944078394467E+03   -0.57709E+03   -0.51352E+03  1200   0.979E+01
RMM:   6    -0.114401534870E+04   -0.19994E+03   -0.17373E+03  1200   0.605E+01
RMM:   7    -0.120441036649E+04   -0.60395E+02   -0.56184E+02  1200   0.344E+01
RMM:   8    -0.122686355090E+04   -0.22453E+02   -0.19523E+02  1200   0.209E+01
RMM:   9    -0.123921758187E+04   -0.12354E+02   -0.11826E+02  2802   0.123E+01
RMM:  10    -0.124012288832E+04   -0.90531E+00   -0.86425E+00  3232   0.372E+00
RMM:  11    -0.124017045925E+04   -0.47571E-01   -0.36864E-01  2843   0.721E-01
RMM:  12    -0.124017327174E+04   -0.28125E-02   -0.26770E-02  3215   0.205E-01    0.577E+01
RMM:  13    -0.116833449801E+04    0.71839E+02   -0.16191E+02  2400   0.164E+01    0.320E+01
RMM:  14    -0.115338274571E+04    0.14952E+02   -0.44059E+01  2400   0.852E+00    0.148E+01
RMM:  15    -0.115175861940E+04    0.16241E+01   -0.10352E+01  2401   0.445E+00    0.498E+00
RMM:  16    -0.115152046190E+04    0.23816E+00   -0.82915E-01  2457   0.141E+00    0.143E+00
RMM:  17    -0.115148890255E+04    0.31559E-01   -0.16657E-01  2418   0.669E-01    0.503E-01
RMM:  18    -0.115147831362E+04    0.10589E-01   -0.60101E-02  2406   0.306E-01    0.294E-01
RMM:  19    -0.115147678689E+04    0.15267E-02   -0.13530E-02  2412   0.165E-01    0.151E-01
RMM:  20    -0.115148256062E+04   -0.57737E-02   -0.13431E-02  2400   0.135E-01    0.102E-01
RMM:  21    -0.115148540604E+04   -0.28454E-02   -0.57391E-03  2403   0.802E-02    0.811E-02
RMM:  22    -0.115148906525E+04   -0.36592E-02   -0.21761E-03  2400   0.588E-02    0.402E-02
RMM:  23    -0.115149136842E+04   -0.23032E-02   -0.40869E-04  2425   0.258E-02    0.280E-02
RMM:  24    -0.115149454218E+04   -0.31738E-02   -0.32048E-04  2420   0.219E-02    0.188E-02
RMM:  25    -0.115149671997E+04   -0.21778E-02   -0.24041E-04  2400   0.171E-02    0.118E-02
RMM:  26    -0.115149777255E+04   -0.10526E-02   -0.76006E-05  2245   0.869E-03    0.488E-03
RMM:  27    -0.115149823441E+04   -0.46186E-03   -0.29365E-05  2129   0.516E-03    0.342E-03
RMM:  28    -0.115149841292E+04   -0.17851E-03   -0.11494E-05  1982   0.333E-03    0.133E-03
RMM:  29    -0.115149846636E+04   -0.53445E-04   -0.29974E-06  1673   0.168E-03    0.679E-04
RMM:  30    -0.115149848443E+04   -0.18070E-04   -0.10012E-06  1501   0.102E-03    0.486E-04
RMM:  31    -0.115149848850E+04   -0.40637E-05   -0.34700E-07  1143   0.677E-04    0.345E-04
RMM:  32    -0.115149848964E+04   -0.11454E-05   -0.15734E-07  1114   0.527E-04    0.274E-04
RMM:  33    -0.115149849001E+04   -0.36823E-06   -0.60111E-08   876   0.379E-04
   1 F= -.11620297E+04 E0= -.11620297E+04  d E =-.116203E+04
