 vasp.6.0.8 29Jun18 (build Mar 14 2019 11:44:20) complex                        
  
 executed on             LinuxIFC date 2021.01.17  18:40:22
 running   64 mpi-ranks, with    1 threads/rank
 distrk:  each k-point on   64 cores,    1 groups
 distr:  one band on NCORES_PER_BAND=   4 cores,   16 groups


--------------------------------------------------------------------------------------------------------


 INCAR:
 POTCAR:    PAW_PBE C 08Apr2002                   
 POTCAR:    PAW_PBE Zn 06Sep2000                  
 POTCAR:    PAW_PBE H 15Jun2001                   
 POTCAR:    PAW_PBE N 08Apr2002                   
 POTCAR:    PAW_PBE O 08Apr2002                   
 POTCAR:    PAW_PBE C 08Apr2002                   
   VRHFIN =C: s2p2                                                              
   LEXCH  = PE                                                                  
   EATOM  =   147.1560 eV,   10.8157 Ry                                         
                                                                                
   TITEL  = PAW_PBE C 08Apr2002                                                 
   LULTRA =        F    use ultrasoft PP ?                                      
   IUNSCR =        1    unscreen: 0-lin 1-nonlin 2-no                           
   RPACOR =    1.200    partial core radius                                     
   POMASS =   12.011; ZVAL   =    4.000    mass and valenz                      
   RCORE  =    1.500    outmost cutoff radius                                   
   RWIGS  =    1.630; RWIGS  =    0.863    wigner-seitz radius (au A)           
   ENMAX  =  400.000; ENMIN  =  300.000 eV                                      
   ICORE  =        2    local potential                                         
   LCOR   =        T    correct aug charges                                     
   LPAW   =        T    paw PP                                                  
   EAUG   =  644.873                                                            
   DEXC   =    0.000                                                            
   RMAX   =    1.529    core radius for proj-oper                               
   RAUG   =    1.300    factor for augmentation sphere                          
   RDEP   =    1.501    radius for radial grids                                 
   RDEPT  =    1.300    core radius for aug-charge                              
                                                                                
   Atomic configuration                                                         
    4 entries                                                                   
     n  l   j            E        occ.                                          
     1  0  0.50      -273.3789   2.0000                                         
     2  0  0.50       -13.7508   2.0000                                         
     2  1  0.50        -5.2854   2.0000                                         
     3  2  1.50        -5.4423   0.0000                                         
   Description                                                                  
     l       E           TYP  RCUT    TYP  RCUT                                 
     0    -13.7508458     23  1.200                                             
     0     -8.2022199     23  1.200                                             
     1     -5.2854383     23  1.500                                             
     1     34.0145650     23  1.500                                             
     2     -5.4423304      7  1.500                                             
  local pseudopotential read in
  partial core-charges read in
  partial kinetic energy density read in
  atomic valenz-charges read in
  non local Contribution for L=           0  read in
    real space projection operators read in
  non local Contribution for L=           0  read in
    real space projection operators read in
  non local Contribution for L=           1  read in
    real space projection operators read in
  non local Contribution for L=           1  read in
    real space projection operators read in
    PAW grid and wavefunctions read in
 
   number of l-projection  operators is LMAX  =           4
   number of lm-projection operators is LMMAX =           8
 
 POTCAR:    PAW_PBE Zn 06Sep2000                  
   VRHFIN =Zn: d10 p2                                                           
   LEXCH  = PE                                                                  
   EATOM  =  1748.8345 eV,  128.5357 Ry                                         
                                                                                
   TITEL  = PAW_PBE Zn 06Sep2000                                                
   LULTRA =        F    use ultrasoft PP ?                                      
   IUNSCR =        1    unscreen: 0-lin 1-nonlin 2-no                           
   RPACOR =    2.000    partial core radius                                     
   POMASS =   65.390; ZVAL   =   12.000    mass and valenz                      
   RCORE  =    2.300    outmost cutoff radius                                   
   RWIGS  =    2.400; RWIGS  =    1.270    wigner-seitz radius (au A)           
   ENMAX  =  276.723; ENMIN  =  207.542 eV                                      
   RCLOC  =    1.828    cutoff for local pot                                    
   LCOR   =        T    correct aug charges                                     
   LPAW   =        T    paw PP                                                  
   EAUG   =  575.892                                                            
   DEXC   =    0.000                                                            
   RMAX   =    2.347    core radius for proj-oper                               
   RAUG   =    1.300    factor for augmentation sphere                          
   RDEP   =    2.324    radius for radial grids                                 
   RDEPT  =    1.788    core radius for aug-charge                              
                                                                                
   Atomic configuration                                                         
    9 entries                                                                   
     n  l   j            E        occ.                                          
     1  0  0.50     -9524.6913   2.0000                                         
     2  0  0.50     -1158.1882   2.0000                                         
     2  1  1.50     -1003.8506   6.0000                                         
     3  0  0.50      -129.2194   2.0000                                         
     3  1  1.50       -83.3890   6.0000                                         
     3  2  2.50       -10.1410  10.0000                                         
     4  0  0.50        -5.9785   2.0000                                         
     4  1  0.50        -4.0817   0.0000                                         
     4  3  2.50        -1.3606   0.0000                                         
   Description                                                                  
     l       E           TYP  RCUT    TYP  RCUT                                 
     2    -10.1410010     23  2.300                                             
     2    -11.5015836     23  2.300                                             
     0     -5.9785163     23  2.300                                             
     0      1.1858015     23  2.300                                             
     1     -2.7211652     23  2.300                                             
     1     13.2444212     23  2.300                                             
  local pseudopotential read in
  partial core-charges read in
  partial kinetic energy density read in
  atomic valenz-charges read in
  non local Contribution for L=           2  read in
    real space projection operators read in
  non local Contribution for L=           2  read in
    real space projection operators read in
  non local Contribution for L=           0  read in
    real space projection operators read in
  non local Contribution for L=           0  read in
    real space projection operators read in
  non local Contribution for L=           1  read in
    real space projection operators read in
  non local Contribution for L=           1  read in
    real space projection operators read in
    PAW grid and wavefunctions read in
 
   number of l-projection  operators is LMAX  =           6
   number of lm-projection operators is LMMAX =          18
 
 POTCAR:    PAW_PBE H 15Jun2001                   
   VRHFIN =H: ultrasoft test                                                    
   LEXCH  = PE                                                                  
   EATOM  =    12.4884 eV,    0.9179 Ry                                         
                                                                                
   TITEL  = PAW_PBE H 15Jun2001                                                 
   LULTRA =        F    use ultrasoft PP ?                                      
   IUNSCR =        0    unscreen: 0-lin 1-nonlin 2-no                           
   RPACOR =    0.000    partial core radius                                     
   POMASS =    1.000; ZVAL   =    1.000    mass and valenz                      
   RCORE  =    1.100    outmost cutoff radius                                   
   RWIGS  =    0.700; RWIGS  =    0.370    wigner-seitz radius (au A)           
   ENMAX  =  250.000; ENMIN  =  200.000 eV                                      
   RCLOC  =    0.701    cutoff for local pot                                    
   LCOR   =        T    correct aug charges                                     
   LPAW   =        T    paw PP                                                  
   EAUG   =  400.000                                                            
   RMAX   =    1.123    core radius for proj-oper                               
   RAUG   =    1.200    factor for augmentation sphere                          
   RDEP   =    1.112    radius for radial grids                                 
   RDEPT  =    0.926    core radius for aug-charge                              
                                                                                
   Atomic configuration                                                         
    2 entries                                                                   
     n  l   j            E        occ.                                          
     1  0  0.50        -6.4927   1.0000                                         
     2  1  0.50        -3.4015   0.0000                                         
   Description                                                                  
     l       E           TYP  RCUT    TYP  RCUT                                 
     0     -6.4927494     23  1.100                                             
     0      6.8029130     23  1.100                                             
     1     -4.0817478     23  1.100                                             
  local pseudopotential read in
  atomic valenz-charges read in
  non local Contribution for L=           0  read in
    real space projection operators read in
  non local Contribution for L=           0  read in
    real space projection operators read in
  non local Contribution for L=           1  read in
    real space projection operators read in
    PAW grid and wavefunctions read in
 
   number of l-projection  operators is LMAX  =           3
   number of lm-projection operators is LMMAX =           5
 
 POTCAR:    PAW_PBE N 08Apr2002                   
   VRHFIN =N: s2p3                                                              
   LEXCH  = PE                                                                  
   EATOM  =   264.5486 eV,   19.4438 Ry                                         
                                                                                
   TITEL  = PAW_PBE N 08Apr2002                                                 
   LULTRA =        F    use ultrasoft PP ?                                      
   IUNSCR =        1    unscreen: 0-lin 1-nonlin 2-no                           
   RPACOR =    1.200    partial core radius                                     
   POMASS =   14.001; ZVAL   =    5.000    mass and valenz                      
   RCORE  =    1.500    outmost cutoff radius                                   
   RWIGS  =    1.400; RWIGS  =    0.741    wigner-seitz radius (au A)           
   ENMAX  =  400.000; ENMIN  =  300.000 eV                                      
   ICORE  =        2    local potential                                         
   LCOR   =        T    correct aug charges                                     
   LPAW   =        T    paw PP                                                  
   EAUG   =  627.112                                                            
   DEXC   =    0.000                                                            
   RMAX   =    1.529    core radius for proj-oper                               
   RAUG   =    1.300    factor for augmentation sphere                          
   RDEP   =    1.514    radius for radial grids                                 
   RDEPT  =    1.338    core radius for aug-charge                              
                                                                                
   Atomic configuration                                                         
    4 entries                                                                   
     n  l   j            E        occ.                                          
     1  0  0.50      -384.7179   2.0000                                         
     2  0  0.50       -18.5828   2.0000                                         
     2  1  0.50        -7.0898   3.0000                                         
     3  2  1.50        -6.8029   0.0000                                         
   Description                                                                  
     l       E           TYP  RCUT    TYP  RCUT                                 
     0    -18.5828119     23  1.200                                             
     0    -13.5018863     23  1.200                                             
     1     -7.0897853     23  1.500                                             
     1      9.5240782     23  1.500                                             
     2     -6.8029130      7  1.500                                             
  local pseudopotential read in
  partial core-charges read in
  partial kinetic energy density read in
  atomic valenz-charges read in
  non local Contribution for L=           0  read in
    real space projection operators read in
  non local Contribution for L=           0  read in
    real space projection operators read in
  non local Contribution for L=           1  read in
    real space projection operators read in
  non local Contribution for L=           1  read in
    real space projection operators read in
    PAW grid and wavefunctions read in
 
   number of l-projection  operators is LMAX  =           4
   number of lm-projection operators is LMMAX =           8
 
 POTCAR:    PAW_PBE O 08Apr2002                   
   VRHFIN =O: s2p4                                                              
   LEXCH  = PE                                                                  
   EATOM  =   432.3788 eV,   31.7789 Ry                                         
                                                                                
   TITEL  = PAW_PBE O 08Apr2002                                                 
   LULTRA =        F    use ultrasoft PP ?                                      
   IUNSCR =        1    unscreen: 0-lin 1-nonlin 2-no                           
   RPACOR =    1.200    partial core radius                                     
   POMASS =   16.000; ZVAL   =    6.000    mass and valenz                      
   RCORE  =    1.520    outmost cutoff radius                                   
   RWIGS  =    1.550; RWIGS  =    0.820    wigner-seitz radius (au A)           
   ENMAX  =  400.000; ENMIN  =  300.000 eV                                      
   ICORE  =        2    local potential                                         
   LCOR   =        T    correct aug charges                                     
   LPAW   =        T    paw PP                                                  
   EAUG   =  605.392                                                            
   DEXC   =    0.000                                                            
   RMAX   =    1.553    core radius for proj-oper                               
   RAUG   =    1.300    factor for augmentation sphere                          
   RDEP   =    1.550    radius for radial grids                                 
   RDEPT  =    1.329    core radius for aug-charge                              
                                                                                
   Atomic configuration                                                         
    4 entries                                                                   
     n  l   j            E        occ.                                          
     1  0  0.50      -514.6923   2.0000                                         
     2  0  0.50       -23.9615   2.0000                                         
     2  1  0.50        -9.0305   4.0000                                         
     3  2  1.50        -9.5241   0.0000                                         
   Description                                                                  
     l       E           TYP  RCUT    TYP  RCUT                                 
     0    -23.9615318     23  1.200                                             
     0     -9.5240782     23  1.200                                             
     1     -9.0304911     23  1.520                                             
     1      8.1634956     23  1.520                                             
     2     -9.5240782      7  1.500                                             
  local pseudopotential read in
  partial core-charges read in
  partial kinetic energy density read in
  kinetic energy density of atom read in
  atomic valenz-charges read in
  non local Contribution for L=           0  read in
    real space projection operators read in
  non local Contribution for L=           0  read in
    real space projection operators read in
  non local Contribution for L=           1  read in
    real space projection operators read in
  non local Contribution for L=           1  read in
    real space projection operators read in
    PAW grid and wavefunctions read in
 
   number of l-projection  operators is LMAX  =           4
   number of lm-projection operators is LMMAX =           8
 
 Optimization of the real space projectors (new method)

 maximal supplied QI-value         = 25.13
 optimisation between [QCUT,QGAM] = [ 12.32, 24.88] = [ 42.47,173.37] Ry 
 Optimized for a Real-space Cutoff    1.06 Angstroem

   l    n(q)    QCUT    max X(q) W(low)/X(q) W(high)/X(q)  e(spline) 
   0      8    12.315   115.676    0.34E-03    0.18E-03    0.23E-06
   0      8    12.315    87.132    0.34E-03    0.18E-03    0.22E-06
   1      7    12.315     4.429    0.45E-03    0.12E-03    0.18E-06
   1      7    12.315     2.733    0.35E-03    0.97E-04    0.15E-06
 Optimization of the real space projectors (new method)

 maximal supplied QI-value         = 16.25
 optimisation between [QCUT,QGAM] = [ 12.51, 25.03] = [ 43.85,175.40] Ry 
 Optimized for a Real-space Cutoff    1.31 Angstroem

   l    n(q)    QCUT    max X(q) W(low)/X(q) W(high)/X(q)  e(spline) 
   2      9    12.514    46.356    0.36E-03    0.54E-03    0.48E-06
   2      9    12.514    41.843    0.37E-03    0.56E-03    0.49E-06
   0     10    12.514    48.958    0.13E-03    0.28E-03    0.23E-06
   0     10    12.514    32.776    0.12E-03    0.26E-03    0.22E-06
   1      9    12.514    17.787    0.44E-03    0.44E-04    0.36E-06
   1      9    12.514    14.435    0.39E-03    0.39E-04    0.32E-06
 Optimization of the real space projectors (new method)

 maximal supplied QI-value         = 34.20
 optimisation between [QCUT,QGAM] = [ 12.31, 24.97] = [ 42.46,174.58] Ry 
 Optimized for a Real-space Cutoff    1.00 Angstroem

   l    n(q)    QCUT    max X(q) W(low)/X(q) W(high)/X(q)  e(spline) 
   0      7    12.313    19.460    0.14E-03    0.42E-03    0.16E-06
   0      7    12.313    12.209    0.12E-03    0.40E-03    0.16E-06
   1      7    12.313     4.655    0.33E-03    0.59E-03    0.89E-07
 Optimization of the real space projectors (new method)

 maximal supplied QI-value         = 25.13
 optimisation between [QCUT,QGAM] = [ 12.32, 24.88] = [ 42.47,173.37] Ry 
 Optimized for a Real-space Cutoff    1.20 Angstroem

   l    n(q)    QCUT    max X(q) W(low)/X(q) W(high)/X(q)  e(spline) 
   0      9    12.315    79.467    0.14E-03    0.22E-04    0.37E-06
   0      9    12.315    66.151    0.14E-03    0.23E-04    0.36E-06
   1      8    12.315    22.077    0.30E-03    0.54E-03    0.45E-06
   1      8    12.315    15.894    0.30E-03    0.55E-03    0.45E-06
 Optimization of the real space projectors (new method)

 maximal supplied QI-value         = 24.76
 optimisation between [QCUT,QGAM] = [ 12.38, 25.00] = [ 42.90,175.06] Ry 
 Optimized for a Real-space Cutoff    1.13 Angstroem

   l    n(q)    QCUT    max X(q) W(low)/X(q) W(high)/X(q)  e(spline) 
   0      8    12.378    20.381    0.16E-03    0.54E-05    0.27E-06
   0      8    12.378    15.268    0.17E-03    0.61E-05    0.29E-06
   1      8    12.378     5.964    0.38E-03    0.23E-03    0.28E-06
   1      8    12.378     5.382    0.33E-03    0.20E-03    0.25E-06
  PAW_PBE C 08Apr2002                   :
 energy of atom  1       EATOM= -147.1560
 kinetic energy error for atom=    0.0057 (will be added to EATOM!!)
  PAW_PBE Zn 06Sep2000                  :
 energy of atom  2       EATOM=-1748.8345
 kinetic energy error for atom=    0.0020 (will be added to EATOM!!)
  PAW_PBE H 15Jun2001                   :
 energy of atom  3       EATOM=  -12.4884
 kinetic energy error for atom=    0.0004 (will be added to EATOM!!)
  PAW_PBE N 08Apr2002                   :
 energy of atom  4       EATOM= -264.5486
 kinetic energy error for atom=    0.0103 (will be added to EATOM!!)
  PAW_PBE O 08Apr2002                   :
 energy of atom  5       EATOM= -432.3788
 kinetic energy error for atom=    0.0168 (will be added to EATOM!!)
 
 
 POSCAR: Zn_H
  positions in direct lattice
  velocities in cartesian coordinates
 exchange correlation table for  LEXCH =        8
   RHO(1)=    0.500       N(1)  =     2000
   RHO(2)=  100.500       N(2)  =     4000
 


--------------------------------------------------------------------------------------------------------


 ion  position               nearest neighbor table
   1  0.938  0.970  0.161- 107 1.09 117 1.34  65 1.40
   2  0.889  0.954  0.427- 112 1.09 118 1.35  65 1.40
   3  0.937  0.786  0.883- 116 1.09 119 1.34  66 1.40
   4  0.562  0.470  0.662- 110 1.09 120 1.34  67 1.40
   5  0.611  0.302  0.118- 111 1.09 121 1.35  68 1.40
   6  0.111  0.802  0.118- 115 1.09 122 1.35  69 1.40
   7  0.610  0.454  0.928- 101 1.09 123 1.35  67 1.40
   8  0.562  0.286  0.383- 113 1.09 124 1.34  68 1.40
   9  0.389  0.454  0.428- 114 1.09 125 1.35  70 1.40
  10  0.062  0.786  0.382- 104 1.09 126 1.34  69 1.40
  11  0.111  0.954  0.927- 105 1.09 127 1.35  71 1.40
  12  0.389  0.302  0.619- 102 1.09 128 1.35  72 1.40
  13  0.889  0.802  0.618- 108 1.09 129 1.35  66 1.40
  14  0.062  0.970  0.661- 109 1.09 130 1.34  71 1.40
  15  0.438  0.286  0.884- 106 1.09 131 1.34  72 1.40
  16  0.438  0.470  0.163- 103 1.09 132 1.34  70 1.40
  17  0.818  0.017  0.091- 141 1.23 133 1.42  33 1.48
  18  0.841  0.071  0.482- 142 1.23 133 1.42  34 1.48
  19  0.840  0.685  0.562- 143 1.23 134 1.42  35 1.48
  20  0.659  0.572  0.983- 144 1.23 135 1.42  36 1.48
  21  0.660  0.184  0.063- 145 1.23 136 1.42  37 1.48
  22  0.182  0.739  0.453- 146 1.23 137 1.42  38 1.48
  23  0.682  0.517  0.592- 147 1.23 135 1.42  39 1.48
  24  0.682  0.239  0.453- 148 1.23 136 1.42  40 1.48
  25  0.318  0.517  0.092- 149 1.23 138 1.42  41 1.48
  26  0.159  0.684  0.062- 150 1.23 137 1.42  42 1.48
  27  0.159  0.071  0.982- 151 1.23 139 1.42  43 1.48
  28  0.340  0.184  0.563- 152 1.23 140 1.42  44 1.48
  29  0.817  0.739  0.953- 153 1.23 134 1.42  45 1.48
  30  0.182  0.017  0.591- 154 1.23 139 1.42  46 1.48
  31  0.318  0.239  0.954- 155 1.23 140 1.42  47 1.48
  32  0.340  0.571  0.483- 156 1.23 138 1.42  48 1.48
  33  0.776  0.060  0.089-  49 1.39  73 1.42  17 1.48
  34  0.801  0.114  0.469-  50 1.39  73 1.42  18 1.48
  35  0.800  0.642  0.575-  51 1.39  74 1.42  19 1.48
  36  0.699  0.615  0.970-  52 1.39  75 1.42  20 1.48
  37  0.700  0.142  0.075-  53 1.39  76 1.42  21 1.48
  38  0.224  0.696  0.455-  54 1.39  77 1.42  22 1.48
  39  0.723  0.560  0.590-  55 1.39  75 1.42  23 1.48
  40  0.724  0.196  0.455-  56 1.39  76 1.42  24 1.48
  41  0.276  0.559  0.090-  57 1.39  78 1.42  25 1.48
  42  0.199  0.641  0.075-  58 1.39  77 1.42  26 1.48
  43  0.199  0.114  0.969-  59 1.39  79 1.42  27 1.48
  44  0.300  0.142  0.575-  60 1.39  80 1.42  28 1.48
  45  0.776  0.696  0.955-  61 1.39  74 1.42  29 1.48
  46  0.224  0.060  0.590-  62 1.39  79 1.42  30 1.48
  47  0.276  0.196  0.955-  63 1.39  80 1.42  31 1.48
  48  0.300  0.614  0.470-  64 1.39  78 1.42  32 1.48
  49  0.745  0.053  0.902-  88 1.09  33 1.39  53 1.40
  50  0.794  0.162  0.649-  99 1.09  34 1.39  56 1.40
  51  0.793  0.594  0.395-  93 1.09  35 1.39  55 1.40
  52  0.706  0.662  0.150-  90 1.09  36 1.39  61 1.40
  53  0.707  0.094  0.895-  98 1.09  37 1.39  49 1.40
  54  0.255  0.702  0.643-  96 1.09  38 1.39  64 1.40
  55  0.755  0.553  0.403-  86 1.09  39 1.39  51 1.40
  56  0.755  0.203  0.642-  87 1.09  40 1.39  50 1.40
  57  0.245  0.553  0.903-  95 1.09  41 1.39  58 1.40
  58  0.206  0.594  0.895-  91 1.09  42 1.39  57 1.40
  59  0.206  0.162  0.150-  92 1.09  43 1.39  63 1.40
  60  0.293  0.094  0.395-  85 1.09  44 1.39  62 1.40
  61  0.744  0.703  0.142-  89 1.09  45 1.39  52 1.40
  62  0.255  0.053  0.402- 100 1.09  46 1.39  60 1.40
  63  0.245  0.203  0.143-  94 1.09  47 1.39  59 1.40
  64  0.293  0.662  0.650-  97 1.09  48 1.39  54 1.40
  65  0.889  0.985  0.293-   1 1.40   2 1.40 133 1.42
  66  0.888  0.770  0.751-   3 1.40  13 1.40 134 1.42
  67  0.611  0.486  0.794-   4 1.40   7 1.40 135 1.42
  68  0.611  0.270  0.252-   8 1.40   5 1.40 136 1.42
  69  0.111  0.770  0.251-  10 1.40   6 1.40 137 1.42
  70  0.389  0.485  0.294-  16 1.40   9 1.40 138 1.42
  71  0.111  0.985  0.793-  14 1.40  11 1.40 139 1.42
  72  0.389  0.270  0.752-  15 1.40  12 1.40 140 1.42
  73  0.770  0.107  0.276-  34 1.42  33 1.42  76 1.43
  74  0.769  0.649  0.769-  35 1.42  45 1.42  75 1.43
  75  0.730  0.607  0.776-  36 1.42  39 1.42  74 1.43
  76  0.731  0.149  0.269-  37 1.42  40 1.42  73 1.43
  77  0.230  0.649  0.269-  42 1.42  38 1.42  78 1.43
  78  0.269  0.607  0.276-  48 1.42  41 1.42  77 1.43
  79  0.230  0.107  0.776-  43 1.42  46 1.42  80 1.43
  80  0.269  0.149  0.769-  44 1.42  47 1.42  79 1.43
  81  0.024  0.878  0.022- 122 1.97 127 1.97 117 2.03 119 2.03
  82  0.976  0.878  0.522- 129 1.97 118 1.97 130 2.03 126 2.03
  83  0.476  0.378  0.523- 128 1.97 125 1.97 120 2.03 124 2.03
  84  0.524  0.378  0.023- 121 1.97 123 1.97 132 2.03 131 2.03
  85  0.318  0.090  0.249-  60 1.09
  86  0.749  0.516  0.262-  55 1.09
  87  0.749  0.240  0.783-  56 1.09
  88  0.751  0.016  0.761-  49 1.09
  89  0.750  0.740  0.283-  61 1.09
  90  0.681  0.666  0.296-  52 1.09
  91  0.182  0.589  0.749-  58 1.09
  92  0.182  0.166  0.296-  59 1.09
  93  0.818  0.590  0.249-  51 1.09
  94  0.250  0.240  0.284-  63 1.09
  95  0.251  0.516  0.762-  57 1.09
  96  0.249  0.740  0.783-  54 1.09
  97  0.318  0.666  0.797-  64 1.09
  98  0.682  0.090  0.749-  53 1.09
  99  0.818  0.166  0.796-  50 1.09
 100  0.249  0.016  0.261-  62 1.09
 101  0.639  0.454  0.058-   7 1.09
 102  0.360  0.302  0.488-  12 1.09
 103  0.453  0.483  0.034-  16 1.09
 104  0.047  0.772  0.511-  10 1.09
 105  0.139  0.954  0.057-  11 1.09
 106  0.453  0.272  0.012-  15 1.09
 107  0.953  0.983  0.033-   1 1.09
 108  0.860  0.802  0.487-  13 1.09
 109  0.047  0.983  0.533-  14 1.09
 110  0.547  0.483  0.534-   4 1.09
 111  0.640  0.302  0.988-   5 1.09
 112  0.860  0.954  0.557-   2 1.09
 113  0.547  0.272  0.512-   8 1.09
 114  0.360  0.454  0.558-   9 1.09
 115  0.140  0.801  0.987-   6 1.09
 116  0.953  0.772  0.011-   3 1.09
 117  0.966  0.931  0.213-   1 1.34 118 1.37  81 2.03
 118  0.936  0.921  0.375-   2 1.35 117 1.37  82 1.97
 119  0.966  0.824  0.831-   3 1.34 129 1.37  81 2.03
 120  0.534  0.431  0.714-   4 1.34 123 1.37  83 2.03
 121  0.564  0.334  0.170-   5 1.35 124 1.37  84 1.97
 122  0.064  0.834  0.169-   6 1.35 126 1.37  81 1.97
 123  0.564  0.421  0.876-   7 1.35 120 1.37  84 1.97
 124  0.534  0.324  0.332-   8 1.34 121 1.37  83 2.03
 125  0.436  0.421  0.376-   9 1.35 132 1.37  83 1.97
 126  0.034  0.824  0.331-  10 1.34 122 1.37  82 2.03
 127  0.064  0.921  0.875-  11 1.35 130 1.37  81 1.97
 128  0.436  0.334  0.670-  12 1.35 131 1.37  83 1.97
 129  0.936  0.834  0.670-  13 1.35 119 1.37  82 1.97
 130  0.034  0.931  0.713-  14 1.34 127 1.37  82 2.03
 131  0.466  0.324  0.832-  15 1.34 128 1.37  84 2.03
 132  0.466  0.431  0.214-  16 1.34 125 1.37  84 2.03
 133  0.848  0.025  0.289-  18 1.42  17 1.42  65 1.42
 134  0.847  0.731  0.755-  19 1.42  29 1.42  66 1.42
 135  0.652  0.526  0.790-  20 1.42  23 1.42  67 1.42
 136  0.652  0.230  0.255-  21 1.42  24 1.42  68 1.42
 137  0.152  0.730  0.255-  26 1.42  22 1.42  69 1.42
 138  0.347  0.525  0.290-  32 1.42  25 1.42  70 1.42
 139  0.152  0.025  0.789-  27 1.42  30 1.42  71 1.42
 140  0.347  0.230  0.756-  28 1.42  31 1.42  72 1.42
 141  0.826  0.975  0.931-  17 1.23
 142  0.866  0.075  0.650-  18 1.23
 143  0.866  0.681  0.395-  19 1.23
 144  0.633  0.575  0.150-  20 1.23
 145  0.634  0.181  0.895-  21 1.23
 146  0.174  0.780  0.613-  22 1.23
 147  0.674  0.476  0.432-  23 1.23
 148  0.674  0.280  0.613-  24 1.23
 149  0.326  0.475  0.932-  25 1.23
 150  0.134  0.681  0.895-  26 1.23
 151  0.133  0.075  0.150-  27 1.23
 152  0.366  0.181  0.395-  28 1.23
 153  0.826  0.780  0.113-  29 1.23
 154  0.174  0.975  0.431-  30 1.23
 155  0.326  0.280  0.114-  31 1.23
 156  0.366  0.575  0.651-  32 1.23
 

IMPORTANT INFORMATION: All symmetrisations will be switched off!
NOSYMM: (Re-)initialisation of all symmetry stuff for point group C_1.


----------------------------------------------------------------------------------------

                                     Primitive cell                                     

  volume of cell :    3735.3682

  direct lattice vectors                    reciprocal lattice vectors
    23.174579126 -0.000631707  0.002383225     0.043150731 -0.000006180 -0.000012538
     0.002043217 25.637074544 -5.605637246     0.000000488  0.040303425  0.005933653
     0.001750590 -0.956409106  6.496261834    -0.000015409  0.034777908  0.159054847

  length of vectors
    23.174579258 26.242765942  6.566288088     0.043150733  0.040737873  0.162812615

  position of ions in fractional coordinates (direct lattice)
     0.937728564  0.969704520  0.161392160
     0.889330122  0.954017419  0.426749073
     0.937473342  0.785952078  0.882667184
     0.562052284  0.469866655  0.662497931
     0.610622281  0.301757133  0.118198714
     0.110566409  0.801580743  0.117545087
     0.610498439  0.454161421  0.927603645
     0.562253906  0.285983111  0.383423680
     0.389249255  0.453985791  0.427787865
     0.062077642  0.785800858  0.382488996
     0.110599342  0.953922553  0.926597237
     0.389298964  0.301762313  0.618536349
     0.889113176  0.801842465  0.617811492
     0.062272535  0.969657392  0.661321390
     0.437635923  0.286021337  0.883794509
     0.437614559  0.469781346  0.162593149
     0.817728606  0.016632569  0.091403206
     0.840556418  0.071418219  0.481889952
     0.840122242  0.684508927  0.562350992
     0.659100420  0.571652375  0.982500954
     0.659545784  0.184413532  0.062579888
     0.182163524  0.739053072  0.452983791
     0.682045193  0.516754823  0.592117317
     0.682349307  0.239165029  0.453141100
     0.317554748  0.516509763  0.092472105
     0.159428297  0.684200197  0.062465763
     0.159400395  0.071338732  0.982092480
     0.340403382  0.184456104  0.562904550
     0.817319637  0.739308250  0.952958508
     0.182269874  0.016618698  0.591490366
     0.317558686  0.239147478  0.953581941
     0.340269651  0.571342315  0.483044861
     0.776380959  0.059582808  0.089359949
     0.800637894  0.114335477  0.469218542
     0.800173318  0.641626699  0.575131292
     0.699061554  0.614524926  0.969670981
     0.699532085  0.141525808  0.075095364
     0.223543345  0.696149475  0.455214212
     0.723376066  0.559693966  0.589834324
     0.723771376  0.196261249  0.454990293
     0.276184272  0.559413883  0.090207152
     0.199382890  0.641328410  0.075350301
     0.199318799  0.114267741  0.969490840
     0.300445230  0.141546297  0.575375590
     0.775908119  0.696420380  0.955045545
     0.223613738  0.059577542  0.589519341
     0.276160262  0.196224898  0.955389623
     0.300352508  0.614236083  0.470104287
     0.744788843  0.053278515  0.902148049
     0.793639861  0.161762525  0.649346928
     0.793207189  0.594178025  0.395116831
     0.706041513  0.661972279  0.149693063
     0.706534492  0.094104321  0.894956468
     0.255069647  0.702497610  0.642600324
     0.754977936  0.553356071  0.402524410
     0.755361400  0.202573078  0.642201232
     0.244623449  0.553053188  0.902886170
     0.206389486  0.593865035  0.895406889
     0.206288779  0.161674891  0.149697828
     0.293462780  0.094149912  0.395149160
     0.744316218  0.702766844  0.142370941
     0.255217661  0.053311174  0.402281880
     0.244551202  0.202504366  0.142616531
     0.293313935  0.661693925  0.650080124
     0.888720948  0.985358401  0.293079400
     0.888426602  0.770454535  0.751239180
     0.611052757  0.485530772  0.794043730
     0.611267230  0.270384985  0.251706897
     0.111144094  0.770209023  0.251063827
     0.388594203  0.485359101  0.294267408
     0.111244917  0.985299677  0.793065730
     0.388641826  0.270412968  0.752130678
     0.769523412  0.107211342  0.275694763
     0.769043209  0.648785725  0.768742481
     0.730203187  0.607348439  0.776066317
     0.730662664  0.148653694  0.268584938
     0.230460120  0.648503228  0.268994526
     0.269297792  0.607070839  0.276413543
     0.230449274  0.107181872  0.775946816
     0.269304447  0.148635824  0.768904450
     0.024140845  0.877737177  0.022054222
     0.975726355  0.877805303  0.522204374
     0.475736266  0.377868439  0.523078152
     0.524153153  0.377918189  0.023096914
     0.318196812  0.089709248  0.248661587
     0.749068137  0.516192360  0.261732318
     0.749398074  0.239702171  0.783122185
     0.750725822  0.016137877  0.761249487
     0.750280848  0.739901183  0.283241826
     0.681289254  0.666476387  0.296211597
     0.181685589  0.589349440  0.748848614
     0.181542480  0.166120055  0.296166490
     0.817941776  0.589686038  0.248581566
     0.250487915  0.239618579  0.283606428
     0.250580290  0.515887176  0.762122040
     0.249082120  0.739648927  0.783406941
     0.317992520  0.666194747  0.796675192
     0.681801651  0.089632574  0.748503622
     0.818373354  0.166235503  0.795801160
     0.249294096  0.016190854  0.261310203
     0.639430696  0.454380510  0.058080028
     0.360394097  0.301581319  0.488036212
     0.453078191  0.483409600  0.034387304
     0.046552212  0.772177713  0.510624825
     0.139496619  0.954107004  0.057118437
     0.453098402  0.272401177  0.011986896
     0.953222694  0.983290964  0.033104687
     0.860196375  0.801730643  0.487439079
     0.046813846  0.983263271  0.533076599
     0.546530994  0.483465041  0.534318822
     0.639534301  0.301580339  0.987643786
     0.860403487  0.954230338  0.557305523
     0.546777398  0.272347612  0.511591856
     0.360334570  0.454137155  0.558296219
     0.139525503  0.801404041  0.987122047
     0.952934587  0.772271176  0.010695222
     0.966018617  0.931267767  0.213354761
     0.935991904  0.921316514  0.374881276
     0.965856906  0.824359447  0.830809447
     0.533823307  0.431385306  0.714387417
     0.563947395  0.334438520  0.170214217
     0.063876560  0.834246110  0.169257963
     0.563875447  0.421426787  0.875765834
     0.533939223  0.324437373  0.331664411
     0.435945224  0.421331544  0.375828193
     0.033796371  0.824244899  0.330558704
     0.063953969  0.921214341  0.874615735
     0.435963953  0.334435970  0.670439266
     0.935850347  0.834431565  0.669577501
     0.033972874  0.931196067  0.713126131
     0.465957794  0.324456213  0.831897426
     0.465953533  0.431351498  0.214424773
     0.847583661  0.025338306  0.289295601
     0.847189629  0.730562947  0.754994819
     0.652165917  0.525511298  0.790087976
     0.652465430  0.230447398  0.255310994
     0.152332486  0.730287513  0.255000663
     0.347386941  0.525275149  0.290454688
     0.152386896  0.025287340  0.789396877
     0.347459604  0.230463822  0.755724120
     0.826163731  0.975411340  0.931205106
     0.866458779  0.075031351  0.649686034
     0.866050681  0.680870981  0.394507872
     0.633086335  0.575351528  0.150236188
     0.633620120  0.180807162  0.894839511
     0.173679836  0.780277436  0.613127351
     0.673638367  0.475500979  0.432064149
     0.673877705  0.280351644  0.613446898
     0.326038680  0.475273336  0.932380828
     0.133530572  0.680532244  0.894596188
     0.133488470  0.074923465  0.149906040
     0.366326657  0.180886874  0.395127205
     0.825812262  0.780493364  0.113205628
     0.173862223  0.975417438  0.431221420
     0.326000638  0.280321746  0.113927383
     0.366120276  0.574971709  0.650964226

  ion indices of the primitive-cell ions
   primitive index   ion index
                 1           1
                 2           2
                 3           3
                 4           4
                 5           5
                 6           6
                 7           7
                 8           8
                 9           9
                10          10
                11          11
                12          12
                13          13
                14          14
                15          15
                16          16
                17          17
                18          18
                19          19
                20          20
                21          21
                22          22
                23          23
                24          24
                25          25
                26          26
                27          27
                28          28
                29          29
                30          30
                31          31
                32          32
                33          33
                34          34
                35          35
                36          36
                37          37
                38          38
                39          39
                40          40
                41          41
                42          42
                43          43
                44          44
                45          45
                46          46
                47          47
                48          48
                49          49
                50          50
                51          51
                52          52
                53          53
                54          54
                55          55
                56          56
                57          57
                58          58
                59          59
                60          60
                61          61
                62          62
                63          63
                64          64
                65          65
                66          66
                67          67
                68          68
                69          69
                70          70
                71          71
                72          72
                73          73
                74          74
                75          75
                76          76
                77          77
                78          78
                79          79
                80          80
                81          81
                82          82
                83          83
                84          84
                85          85
                86          86
                87          87
                88          88
                89          89
                90          90
                91          91
                92          92
                93          93
                94          94
                95          95
                96          96
                97          97
                98          98
                99          99
               100         100
               101         101
               102         102
               103         103
               104         104
               105         105
               106         106
               107         107
               108         108
               109         109
               110         110
               111         111
               112         112
               113         113
               114         114
               115         115
               116         116
               117         117
               118         118
               119         119
               120         120
               121         121
               122         122
               123         123
               124         124
               125         125
               126         126
               127         127
               128         128
               129         129
               130         130
               131         131
               132         132
               133         133
               134         134
               135         135
               136         136
               137         137
               138         138
               139         139
               140         140
               141         141
               142         142
               143         143
               144         144
               145         145
               146         146
               147         147
               148         148
               149         149
               150         150
               151         151
               152         152
               153         153
               154         154
               155         155
               156         156

----------------------------------------------------------------------------------------

 
 

Automatic generation of k-mesh.
 generate k-points for:    1    1    4
Space group operators:
 irot       det(A)        alpha          n_x          n_y          n_z        tau_x        tau_y        tau_z
    1     1.000000     0.000000     1.000000     0.000000     0.000000     0.000000     0.000000     0.000000
 
 Subroutine IBZKPT returns following result:
 ===========================================
 
 Found      3 irreducible k-points:
 
 Following reciprocal coordinates:
            Coordinates               Weight
  0.000000  0.000000  0.000000      1.000000
  0.000000  0.000000  0.250000      2.000000
  0.000000  0.000000  0.500000      1.000000
 
 Following cartesian coordinates:
            Coordinates               Weight
  0.000000  0.000000  0.000000      1.000000
 -0.000004  0.008694  0.039764      2.000000
 -0.000008  0.017389  0.079527      1.000000
 


--------------------------------------------------------------------------------------------------------




 Dimension of arrays:
   k-points           NKPTS =      3   k-points in BZ     NKDIM =      3   number of bands    NBANDS=    400
   number of dos      NEDOS =    301   number of ions     NIONS =    156
   non local maximal  LDIM  =      6   non local SUM 2l+1 LMDIM =     18
   total plane-waves  NPLWV = 896000
   max r-space proj   IRMAX =   2291   max aug-charges    IRDMAX=   7348
   dimension x,y,z NGX =   140 NGY =  160 NGZ =   40
   dimension x,y,z NGXF=   280 NGYF=  320 NGZF=   80
   support grid    NGXF=   280 NGYF=  320 NGZF=   80
   ions per type =              80   4  32  24  16
   NGX,Y,Z   is equivalent  to a cutoff of  10.04, 10.14, 10.13 a.u.
   NGXF,Y,Z  is equivalent  to a cutoff of  20.09, 20.27, 20.25 a.u.

 SYSTEM =  flex_MOF                                
 POSCAR =  Zn_H                                    

 Startparameter for this run:
   NWRITE =      2    write-flag & timer
   PREC   = normal    normal or accurate (medium, high low for compatibility)
   ISTART =      0    job   : 0-new  1-cont  2-samecut
   ICHARG =      2    charge: 1-file 2-atom 10-const
   ISPIN  =      1    spin polarized calculation?
   LNONCOLLINEAR =      F non collinear calculations
   LSORBIT =      F    spin-orbit coupling
   INIWAV =      1    electr: 0-lowe 1-rand  2-diag
   LASPH  =      F    aspherical Exc in radial PAW
   METAGGA=      F    non-selfconsistent MetaGGA calc.

 Electronic Relaxation 1
   ENCUT  =  600.0 eV  44.10 Ry    6.64 a.u.  46.29 52.41 13.11*2*pi/ulx,y,z
   ENINI  =  600.0     initial cutoff
   ENAUG  =  644.9 eV  augmentation charge cutoff
   NELM   =     80;   NELMIN=  4; NELMDL=-12     # of ELM steps 
   EDIFF  = 0.1E-05   stopping-criterion for ELM
   LREAL  =      T    real-space projection
   NLSPLINE    = F    spline interpolate recip. space projectors
   LCOMPAT=      F    compatible to vasp.4.4
   GGA_COMPAT  = T    GGA compatible to vasp.4.4-vasp.4.6
   LMAXPAW     = -100 max onsite density
   LMAXMIX     =    2 max onsite mixed and CHGCAR
   VOSKOWN=      0    Vosko Wilk Nusair interpolation
   ROPT   =   -0.00050  -0.00050  -0.00050  -0.00050
   ROPT   =   -0.00050
 Ionic relaxation
   EDIFFG = -.1E-01   stopping-criterion for IOM
   NSW    =   1000    number of steps for IOM
   NBLOCK =      1;   KBLOCK =   1000    inner block; outer block 
   IBRION =      1    ionic relax: 0-MD 1-quasi-New 2-CG
   NFREE  =      0    steps in history (QN), initial steepest desc. (CG)
   ISIF   =      4    stress and relaxation
   IWAVPR =     11    prediction:  0-non 1-charg 2-wave 3-comb
   ISYM   =      0    0-nonsym 1-usesym 2-fastsym
   LCORR  =      T    Harris-Foulkes like correction to forces

   POTIM  = 0.5000    time-step for ionic-motion
   TEIN   =    0.0    initial temperature
   TEBEG  =    0.0;   TEEND  =   0.0 temperature during run
   SMASS  =  -3.00    Nose mass-parameter (am)
   estimated Nose-frequenzy (Omega)   =  0.10E-29 period in steps = 0.13E+47 mass=  -0.123E-25a.u.
   SCALEE = 1.0000    scale energy and forces
   NPACO  =    256;   APACO  = 16.0  distance and # of slots for P.C.
   PSTRESS=    0.0 pullay stress

  Mass of Ions in am
   POMASS =  12.01 65.39  1.00 14.00 16.00
  Ionic Valenz
   ZVAL   =   4.00 12.00  1.00  5.00  6.00
  Atomic Wigner-Seitz radii
   RWIGS  =  -1.00 -1.00 -1.00 -1.00 -1.00
  virtual crystal weights 
   VCA    =   1.00  1.00  1.00  1.00  1.00
   NELECT =     616.0000    total number of electrons
   NUPDOWN=      -1.0000    fix difference up-down

 DOS related values:
   EMIN   =  10.00;   EMAX   =-10.00  energy-range for DOS
   EFERMI =   0.00
   ISMEAR =     0;   SIGMA  =   0.05  broadening in eV -4-tet -1-fermi 0-gaus

 Electronic relaxation 2 (details)
   IALGO  =     48    algorithm
   LDIAG  =      T    sub-space diagonalisation (order eigenvalues)
   LSUBROT=      F    optimize rotation matrix (better conditioning)
   TURBO    =      0    0=normal 1=particle mesh
   IRESTART =      0    0=no restart 2=restart with 2 vectors
   NREBOOT  =      0    no. of reboots
   NMIN     =      0    reboot dimension
   EREF     =   0.00    reference energy to select bands
   IMIX   =      4    mixing-type and parameters
     AMIX     =   0.40;   BMIX     =  1.00
     AMIX_MAG =   1.60;   BMIX_MAG =  1.00
     AMIN     =   0.10
     WC   =   100.;   INIMIX=   1;  MIXPRE=   1;  MAXMIX= -45

 Intra band minimization:
   WEIMIN = 0.0010     energy-eigenvalue tresh-hold
   EBREAK =  0.63E-09  absolut break condition
   DEPER  =   0.30     relativ break condition  

   TIME   =   0.40     timestep for ELM

  volume/ion in A,a.u.               =      23.94       161.59
  Fermi-wavevector in a.u.,A,eV,Ry     =   0.897754  1.696509 10.965778  0.805962
  Thomas-Fermi vector in A             =   2.020378
 
 Write flags
   LWAVE        =      T    write WAVECAR
   LDOWNSAMPLE  =      F    k-point downsampling of WAVECAR
   LCHARG       =      T    write CHGCAR
   LVTOT        =      F    write LOCPOT, total local potential
   LVHAR        =      F    write LOCPOT, Hartree potential only
   LELF         =      F    write electronic localiz. function (ELF)
   LORBIT       =      0    0 simple, 1 ext, 2 COOP (PROOUT), +10 PAW based schemes


 Dipole corrections
   LMONO  =      F    monopole corrections only (constant potential shift)
   LDIPOL =      F    correct potential (dipole corrections)
   IDIPOL =      0    1-x, 2-y, 3-z, 4-all directions 
   EPSILON=  1.0000000 bulk dielectric constant

 Exchange correlation treatment:
   GGA     =    PE    GGA type
   LEXCH   =     8    internal setting for exchange type
   VOSKOWN=      0    Vosko Wilk Nusair interpolation
   LHFCALC =     F    Hartree Fock is set to
   LHFONE  =     F    Hartree Fock one center treatment
   AEXX    =    0.0000 exact exchange contribution

 Linear response parameters
   LEPSILON=     F    determine dielectric tensor
   LRPA    =     F    only Hartree local field effects (RPA)
   LNABLA  =     F    use nabla operator in PAW spheres
   LVEL    =     F    velocity operator in full k-point grid
   LINTERFAST=   F  fast interpolation
   KINTER  =     0    interpolate to denser k-point grid
   CSHIFT  =0.1000    complex shift for real part using Kramers Kronig
   OMEGAMAX=  -1.0    maximum frequency
   DEG_THRESHOLD= 0.2000000E-02 threshold for treating states as degnerate
   RTIME   =   -0.100 relaxation time in fs
  (WPLASMAI=    0.000 imaginary part of plasma frequency in eV, 0.658/RTIME)
   DFIELD  = 0.0000000 0.0000000 0.0000000 field for delta impulse in time
 
 Orbital magnetization related:
   ORBITALMAG=     F  switch on orbital magnetization
   LCHIMAG   =     F  perturbation theory with respect to B field
   DQ        =  0.001000  dq finite difference perturbation B field
   LLRAUG    =     F  two centre corrections for induced B field



--------------------------------------------------------------------------------------------------------


 quasi-Newton-method for relaxation of ions
 charge density and potential will be updated during run
 non-spin polarized calculation
 RMM-DIIS sequential band-by-band
 perform sub-space diagonalisation
    before iterative eigenvector-optimisation
 modified Broyden-mixing scheme, WC =      100.0
 initial mixing is a Kerker type mixing with AMIX =  0.4000 and BMIX =      1.0000
 Hartree-type preconditioning will be used
 using additional bands           92
 real space projection scheme for non local part
 use partial core corrections
 calculate Harris-corrections to forces 
   (improved forces if not selfconsistent)
 use gradient corrections 
 use of overlap-Matrix (Vanderbilt PP)
 Gauss-broadening in eV      SIGMA  =   0.05


--------------------------------------------------------------------------------------------------------


  energy-cutoff  :      600.00
  volume of cell :     3735.37
      direct lattice vectors                 reciprocal lattice vectors
    23.174579126 -0.000631707  0.002383225     0.043150731 -0.000006180 -0.000012538
     0.002043217 25.637074544 -5.605637246     0.000000488  0.040303425  0.005933653
     0.001750590 -0.956409106  6.496261834    -0.000015409  0.034777908  0.159054847

  length of vectors
    23.174579258 26.242765942  6.566288088     0.043150733  0.040737873  0.162812615


 
 k-points in units of 2pi/SCALE and weight: read from INCAR                         
   0.00000000  0.00000000  0.00000000       0.250
  -0.00000385  0.00869448  0.03976371       0.500
  -0.00000770  0.01738895  0.07952742       0.250
 
 k-points in reciprocal lattice and weights: read from INCAR                         
   0.00000000  0.00000000  0.00000000       0.250
   0.00000000  0.00000000  0.25000000       0.500
   0.00000000  0.00000000  0.50000000       0.250
 
 position of ions in fractional coordinates (direct lattice) 
   0.93772856  0.96970452  0.16139216
   0.88933012  0.95401742  0.42674907
   0.93747334  0.78595208  0.88266718
   0.56205228  0.46986666  0.66249793
   0.61062228  0.30175713  0.11819871
   0.11056641  0.80158074  0.11754509
   0.61049844  0.45416142  0.92760365
   0.56225391  0.28598311  0.38342368
   0.38924925  0.45398579  0.42778786
   0.06207764  0.78580086  0.38248900
   0.11059934  0.95392255  0.92659724
   0.38929896  0.30176231  0.61853635
   0.88911318  0.80184247  0.61781149
   0.06227254  0.96965739  0.66132139
   0.43763592  0.28602134  0.88379451
   0.43761456  0.46978135  0.16259315
   0.81772861  0.01663257  0.09140321
   0.84055642  0.07141822  0.48188995
   0.84012224  0.68450893  0.56235099
   0.65910042  0.57165238  0.98250095
   0.65954578  0.18441353  0.06257989
   0.18216352  0.73905307  0.45298379
   0.68204519  0.51675482  0.59211732
   0.68234931  0.23916503  0.45314110
   0.31755475  0.51650976  0.09247211
   0.15942830  0.68420020  0.06246576
   0.15940040  0.07133873  0.98209248
   0.34040338  0.18445610  0.56290455
   0.81731964  0.73930825  0.95295851
   0.18226987  0.01661870  0.59149037
   0.31755869  0.23914748  0.95358194
   0.34026965  0.57134232  0.48304486
   0.77638096  0.05958281  0.08935995
   0.80063789  0.11433548  0.46921854
   0.80017332  0.64162670  0.57513129
   0.69906155  0.61452493  0.96967098
   0.69953209  0.14152581  0.07509536
   0.22354334  0.69614948  0.45521421
   0.72337607  0.55969397  0.58983432
   0.72377138  0.19626125  0.45499029
   0.27618427  0.55941388  0.09020715
   0.19938289  0.64132841  0.07535030
   0.19931880  0.11426774  0.96949084
   0.30044523  0.14154630  0.57537559
   0.77590812  0.69642038  0.95504554
   0.22361374  0.05957754  0.58951934
   0.27616026  0.19622490  0.95538962
   0.30035251  0.61423608  0.47010429
   0.74478884  0.05327852  0.90214805
   0.79363986  0.16176253  0.64934693
   0.79320719  0.59417802  0.39511683
   0.70604151  0.66197228  0.14969306
   0.70653449  0.09410432  0.89495647
   0.25506965  0.70249761  0.64260032
   0.75497794  0.55335607  0.40252441
   0.75536140  0.20257308  0.64220123
   0.24462345  0.55305319  0.90288617
   0.20638949  0.59386503  0.89540689
   0.20628878  0.16167489  0.14969783
   0.29346278  0.09414991  0.39514916
   0.74431622  0.70276684  0.14237094
   0.25521766  0.05331117  0.40228188
   0.24455120  0.20250437  0.14261653
   0.29331393  0.66169392  0.65008012
   0.88872095  0.98535840  0.29307940
   0.88842660  0.77045453  0.75123918
   0.61105276  0.48553077  0.79404373
   0.61126723  0.27038499  0.25170690
   0.11114409  0.77020902  0.25106383
   0.38859420  0.48535910  0.29426741
   0.11124492  0.98529968  0.79306573
   0.38864183  0.27041297  0.75213068
   0.76952341  0.10721134  0.27569476
   0.76904321  0.64878572  0.76874248
   0.73020319  0.60734844  0.77606632
   0.73066266  0.14865369  0.26858494
   0.23046012  0.64850323  0.26899453
   0.26929779  0.60707084  0.27641354
   0.23044927  0.10718187  0.77594682
   0.26930445  0.14863582  0.76890445
   0.02414085  0.87773718  0.02205422
   0.97572635  0.87780530  0.52220437
   0.47573627  0.37786844  0.52307815
   0.52415315  0.37791819  0.02309691
   0.31819681  0.08970925  0.24866159
   0.74906814  0.51619236  0.26173232
   0.74939807  0.23970217  0.78312218
   0.75072582  0.01613788  0.76124949
   0.75028085  0.73990118  0.28324183
   0.68128925  0.66647639  0.29621160
   0.18168559  0.58934944  0.74884861
   0.18154248  0.16612005  0.29616649
   0.81794178  0.58968604  0.24858157
   0.25048791  0.23961858  0.28360643
   0.25058029  0.51588718  0.76212204
   0.24908212  0.73964893  0.78340694
   0.31799252  0.66619475  0.79667519
   0.68180165  0.08963257  0.74850362
   0.81837335  0.16623550  0.79580116
   0.24929410  0.01619085  0.26131020
   0.63943070  0.45438051  0.05808003
   0.36039410  0.30158132  0.48803621
   0.45307819  0.48340960  0.03438730
   0.04655221  0.77217771  0.51062482
   0.13949662  0.95410700  0.05711844
   0.45309840  0.27240118  0.01198690
   0.95322269  0.98329096  0.03310469
   0.86019638  0.80173064  0.48743908
   0.04681385  0.98326327  0.53307660
   0.54653099  0.48346504  0.53431882
   0.63953430  0.30158034  0.98764379
   0.86040349  0.95423034  0.55730552
   0.54677740  0.27234761  0.51159186
   0.36033457  0.45413715  0.55829622
   0.13952550  0.80140404  0.98712205
   0.95293459  0.77227118  0.01069522
   0.96601862  0.93126777  0.21335476
   0.93599190  0.92131651  0.37488128
   0.96585691  0.82435945  0.83080945
   0.53382331  0.43138531  0.71438742
   0.56394739  0.33443852  0.17021422
   0.06387656  0.83424611  0.16925796
   0.56387545  0.42142679  0.87576583
   0.53393922  0.32443737  0.33166441
   0.43594522  0.42133154  0.37582819
   0.03379637  0.82424490  0.33055870
   0.06395397  0.92121434  0.87461574
   0.43596395  0.33443597  0.67043927
   0.93585035  0.83443157  0.66957750
   0.03397287  0.93119607  0.71312613
   0.46595779  0.32445621  0.83189743
   0.46595353  0.43135150  0.21442477
   0.84758366  0.02533831  0.28929560
   0.84718963  0.73056295  0.75499482
   0.65216592  0.52551130  0.79008798
   0.65246543  0.23044740  0.25531099
   0.15233249  0.73028751  0.25500066
   0.34738694  0.52527515  0.29045469
   0.15238690  0.02528734  0.78939688
   0.34745960  0.23046382  0.75572412
   0.82616373  0.97541134  0.93120511
   0.86645878  0.07503135  0.64968603
   0.86605068  0.68087098  0.39450787
   0.63308633  0.57535153  0.15023619
   0.63362012  0.18080716  0.89483951
   0.17367984  0.78027744  0.61312735
   0.67363837  0.47550098  0.43206415
   0.67387770  0.28035164  0.61344690
   0.32603868  0.47527334  0.93238083
   0.13353057  0.68053224  0.89459619
   0.13348847  0.07492347  0.14990604
   0.36632666  0.18088687  0.39512721
   0.82581226  0.78049336  0.11320563
   0.17386222  0.97541744  0.43122142
   0.32600064  0.28032175  0.11392738
   0.36612028  0.57497171  0.65096423
 
 position of ions in cartesian coordinates  (Angst):
  21.73372866 24.70543775 -4.38513123
  20.61254761 24.04950720 -2.57348239
  21.72870121 19.30472886  1.33050911
  13.02744492 11.41203235  1.67119750
  14.15173784  7.62273804 -0.92223598
   2.56417358 20.43769423 -3.72950370
  14.15059619 10.75581598  3.48154694
  13.03125317  6.96470527  0.88904301
   9.02236413 11.22948146  0.23506999
   1.44089837 19.77977999 -1.92001794
   2.56666437 23.56950770  0.67233805
   9.02353901  7.14448319  2.32753181
  20.60754353 19.96545286 -0.47925381
   1.44627872 24.22664569 -1.13928227
  10.14415990  6.48720476  4.13907166
  10.14277772 11.88803737 -1.57613321
  18.95071027  0.33847498  0.50249184
  19.48053073  1.36953929  2.73214191
  19.47186242 17.01043806 -0.18192725
  15.27726280 13.71540534  3.17967839
  15.28518232  4.66755484 -0.62564818
   4.22386604 18.51380581 -1.19972798
  15.80820270 12.68134467  0.95143451
  15.81443993  5.69767235  1.60467703
   7.36041487 13.15315754 -2.29388656
   3.69619101 17.48104792 -3.42920421
   3.69590207  0.88953350  5.98041073
   7.89006742  4.19033283  2.62359260
  18.94421739 18.04176621  2.04832198
   4.22509702 -0.13976711  3.74975228
   7.36144685  5.21882665  4.85490078
   7.88761894 14.18534208 -0.06394093
  17.99258014  1.44157378  0.24835631
  18.55550124  2.48195650  2.40915140
  18.54599768 15.89886524  0.14138393
  16.20341040 14.82677758  2.85609879
  16.21178229  3.55604389 -0.30383605
   5.18274220 17.41172376 -0.94463796
  16.76611201 13.78433604  0.69600083
  16.77429454  4.59595021  1.85729162
   6.40175519 14.25528602 -2.54920381
   4.62205685 16.36959258 -3.10508396
   4.62105993  2.00213481  5.65799786
   6.96398820  3.07834873  2.94504932
  17.98443893 16.94027680  2.30219506
   5.18330800  0.96343095  3.49623483
   6.40197127  4.11671454  5.10715370
   6.96262094 15.29741450 -0.38854832
  17.26185613  0.50261217  5.56370491
  18.39373701  3.52557526  3.31343705
  18.38414849 14.85459190 -0.76207369
  16.36382951 16.82741884 -2.73664847
  16.37539846  1.55616866  5.28804069
   5.91369201 17.39523366  0.23716108
  17.49813121 13.80097590 -0.48521016
  17.50672065  4.57869684  3.03815635
   5.67175607 13.31498272  2.76575241
   4.78577036 14.36845648  2.48829751
   4.78124804  4.00156856  0.06667712
   6.80176052  2.03561869  2.03992154
  17.25090022 17.88025091 -3.01280321
   5.91537505  0.98183526  2.31509357
   5.66803461  5.05506530 -0.20810887
   6.79991700 16.34196864  0.51457362
  20.59826029 24.98084156 -3.61752321
  20.59180190 19.03314713  0.56347509
  14.16327255 11.68777194  2.43806288
  14.16685387  6.69075911  0.12093055
   2.57773081 19.50571619 -2.68627115
   9.00701395 12.16150196 -0.80818282
   2.58145563 24.50163572 -0.37100482
   9.00847993  6.21300729  3.37112703
  17.83408290  2.48442207  1.19183142
  17.82492407 15.89724986  1.35892782
  16.92475106 14.82793904  1.63869520
  16.93357365  3.55370719  0.91324073
   5.34261222 16.36831119 -1.88726574
   6.24258725 15.29898581 -1.60672236
   5.34214229  2.00556146  4.44048020
   6.24266694  3.07503035  4.16244794
   0.56128594 22.48150533 -4.77694868
  22.61475533 22.00430261 -1.52595639
  11.02667550  9.18686411  1.28099302
  12.14784131  9.66629558 -1.96717950
   7.37469579  2.06185947  1.11325161
  17.36085170 12.98286564 -1.19152025
  17.36884565  5.39580385  3.74546933
  17.39912058 -0.31481223  4.85660205
  17.38945050 18.69753276 -2.30581647
  15.79047203 16.80277496 -1.81013310
   4.21300215 14.39287512  1.56147050
   4.20802844  3.97546121  0.99319896
  18.95709644 14.87956255 -1.68876574
   5.80593807  5.87171737  0.49976375
   5.80948098 12.49677924  2.05966514
   5.77525598 18.21301980  0.94360666
   7.37209865 16.31713610  1.44172240
  15.80195977  1.58161060  4.36165270
  18.96719082  3.50016353  4.23982714
   5.77777629  0.16500920  1.60737357
  14.81956733 11.59303481 -2.16826533
   8.35345207  7.26467280  1.48071444
  10.50094429 12.36003341 -2.48535015
   1.08129954 19.30798196 -1.01128465
   3.23482487 24.40579568 -4.97698898
  10.50094232  6.97181867 -1.44803233
  22.09260177 25.17643995 -5.29464399
  19.93718038 20.08729368 -1.32562922
   1.08783339 24.69812488 -2.04870048
  12.66754895 11.88325666  0.76224783
  14.82328341  6.78664211  4.72696681
  19.94241401 23.93011871 -1.72661599
  12.67278813  6.49255952  1.79805582
   8.35250724 11.10856088  1.08196903
   3.23681029 19.60147450  1.92055546
  22.08545463 19.78794272 -4.25732205
  22.38935115 23.67031649 -3.83203865
  21.69375714 23.26072900 -2.72700856
  22.38646605 20.33896074  0.77839753
  12.37326247 10.37587340  2.22393039
  13.07022483  8.41087459 -0.76764089
   1.48231324 21.22570949 -3.57678479
  13.06997034  9.96620334  3.32818231
  12.37506029  8.00008096  0.33717313
  10.10436588 10.44198732  0.08068550
   0.78547945 20.81505721 -2.47294147
   1.48551964 22.78070987  0.51789182
  10.10513812  7.93247028  2.48166128
  21.69081501 20.75140303 -0.32553955
   0.79045808 23.19108120 -0.58721232
  10.80049500  7.52217951  3.58655015
  10.79953374 10.85321836 -1.02393008
  19.64295282  0.37237967  1.73932260
  19.63607748 18.00687763  0.81139221
  15.11612749 12.71651301  2.18834692
  15.12152954  5.66340318  0.36831752
   3.53217978 18.47845421 -2.43681276
   8.05212787 13.18850519 -1.05680433
   3.53293575 -0.10678921  4.98674032
   8.05402395  5.18541727  3.61831325
  19.14961990 24.11555830  0.58351898
  20.08110817  1.30167135  3.80199702
  20.07244182 17.07768207 -1.25182530
  14.67294793 14.60624282 -2.24772955
  14.68581554  3.77913376  4.80108246
   4.02762471 19.41752050 -0.39050253
  15.61301355 11.77679840  0.14292128
  15.61847890  6.60026411  2.41516805
   7.55841250 11.29267446  3.39355710
   3.09747136 16.59117158  1.99703241
   3.09395462  1.77736264  0.55415325
   8.49052740  4.25927561  1.55373662
  19.13964451 19.90077398 -3.63778117
   4.03193173 24.59431563 -2.66609472
   7.55569977  7.07746238 -0.83050298
   8.48699768 14.11777318  1.00662377
 


--------------------------------------------------------------------------------------------------------


 k-point  1 :   0.0000 0.0000 0.0000  plane waves:  124649
 k-point  2 :   0.0000 0.0000 0.2500  plane waves:  124669
 k-point  3 :   0.0000 0.0000 0.5000  plane waves:  124712

 maximum and minimum number of plane-waves per node :     31290    31110

 maximum number of plane-waves:    124712
 maximum index in each direction: 
   IXMAX=   46   IYMAX=   52   IZMAX=   13
   IXMIN=  -46   IYMIN=  -52   IZMIN=  -13


 real space projection operators:
  total allocation   :      12190.85 KBytes
  max/ min on nodes  :       3051.20       3043.34


 parallel 3D FFT for wavefunctions:
    minimum data exchange during FFTs selected (reduces bandwidth)
 parallel 3D FFT for charge:
    minimum data exchange during FFTs selected (reduces bandwidth)


 total amount of memory used by VASP MPI-rank0   105426. kBytes
=======================================================================

   base      :      30000. kBytes
   nonlr-proj:       6195. kBytes
   fftplans  :      11211. kBytes
   grid      :      19494. kBytes
   one-center:        606. kBytes
   wavefun   :      37920. kBytes
 
     INWAV:  cpu time    0.0002: real time    0.0006
 Broyden mixing: mesh for mixing (old mesh)
   NGX = 93   NGY =105   NGZ = 27
  (NGX  =280   NGY  =320   NGZ  = 80)
  gives a total of 263655 points

 initial charge density was supplied:
 charge density of overlapping atoms calculated
 number of electron     616.0000000 magnetization 
 keeping initial charge density in first step


--------------------------------------------------------------------------------------------------------


 Maximum index for non-local projection operator          554
 Maximum index for augmentation-charges          356 (set IRDMAX)


--------------------------------------------------------------------------------------------------------


 First call to EWALD:  gamma=   0.114
 Maximum number of real-space cells 2x 2x 6
 Maximum number of reciprocal cells 4x 4x 1

    FEWALD:  cpu time    0.0155: real time    0.0155


--------------------------------------- Iteration      1(   1)  ---------------------------------------


    POTLOK:  cpu time    0.1700: real time    0.2119
    SETDIJ:  cpu time    0.0319: real time    0.0322
    EDDIAG:  cpu time    2.7428: real time    2.8768
  RMM-DIIS:  cpu time    3.4227: real time    3.4478
    ORTHCH:  cpu time    0.6041: real time    0.6042
       DOS:  cpu time    0.0031: real time    0.0032
    --------------------------------------------
      LOOP:  cpu time    6.9746: real time    7.1762

 eigenvalue-minimisations  :  1200
 total energy-change (2. order) : 0.8211337E+04  (-0.2220744E+05)
 number of electron     616.0000000 magnetization 
 augmentation part      616.0000000 magnetization 

 Free energy of the ion-electron system (eV)
  ---------------------------------------------------
  alpha Z        PSCENC =       517.19255214
  Ewald energy   TEWEN  =     42481.95168415
  -Hartree energ DENC   =    -69575.90430268
  -exchange      EXHF   =         0.00000000
  -V(xc)+E(xc)   XCENC  =      2271.86118346
  PAW double counting   =     25034.14638475   -25847.60581054
  entropy T*S    EENTRO =        -0.06663582
  eigenvalues    EBANDS =       896.08196297
  atomic energy  EATOM  =     32433.67991533
  Solvation  Ediel_sol  =         0.00000000
  ---------------------------------------------------
  free energy    TOTEN  =      8211.33693375 eV

  energy without entropy =     8211.40356958  energy(sigma->0) =     8211.37025167


--------------------------------------------------------------------------------------------------------




--------------------------------------- Iteration      1(   2)  ---------------------------------------


    EDDIAG:  cpu time    2.5834: real time    2.5930
  RMM-DIIS:  cpu time    3.3807: real time    3.4192
    ORTHCH:  cpu time    0.5821: real time    0.5834
       DOS:  cpu time    0.0061: real time    0.0061
    --------------------------------------------
      LOOP:  cpu time    6.5523: real time    6.6016

 eigenvalue-minimisations  :  1200
 total energy-change (2. order) :-0.5079362E+04  (-0.6729793E+04)
 number of electron     616.0000000 magnetization 
 augmentation part      616.0000000 magnetization 

 Free energy of the ion-electron system (eV)
  ---------------------------------------------------
  alpha Z        PSCENC =       517.19255214
  Ewald energy   TEWEN  =     42481.95168415
  -Hartree energ DENC   =    -69575.90430268
  -exchange      EXHF   =         0.00000000
  -V(xc)+E(xc)   XCENC  =      2271.86118346
  PAW double counting   =     25034.14638475   -25847.60581054
  entropy T*S    EENTRO =        -0.04408401
  eigenvalues    EBANDS =     -4183.30236135
  atomic energy  EATOM  =     32433.67991533
  Solvation  Ediel_sol  =         0.00000000
  ---------------------------------------------------
  free energy    TOTEN  =      3131.97516126 eV

  energy without entropy =     3132.01924527  energy(sigma->0) =     3131.99720326


--------------------------------------------------------------------------------------------------------




--------------------------------------- Iteration      1(   3)  ---------------------------------------


    EDDIAG:  cpu time    2.5721: real time    2.5758
  RMM-DIIS:  cpu time    3.3862: real time    3.3901
    ORTHCH:  cpu time    0.5819: real time    0.5832
       DOS:  cpu time    0.0029: real time    0.0029
    --------------------------------------------
      LOOP:  cpu time    6.5432: real time    6.5521

 eigenvalue-minimisations  :  1200
 total energy-change (2. order) :-0.2103215E+04  (-0.2923381E+04)
 number of electron     616.0000000 magnetization 
 augmentation part      616.0000000 magnetization 

 Free energy of the ion-electron system (eV)
  ---------------------------------------------------
  alpha Z        PSCENC =       517.19255214
  Ewald energy   TEWEN  =     42481.95168415
  -Hartree energ DENC   =    -69575.90430268
  -exchange      EXHF   =         0.00000000
  -V(xc)+E(xc)   XCENC  =      2271.86118346
  PAW double counting   =     25034.14638475   -25847.60581054
  entropy T*S    EENTRO =        -0.06516045
  eigenvalues    EBANDS =     -6286.49583491
  atomic energy  EATOM  =     32433.67991533
  Solvation  Ediel_sol  =         0.00000000
  ---------------------------------------------------
  free energy    TOTEN  =      1028.76061125 eV

  energy without entropy =     1028.82577170  energy(sigma->0) =     1028.79319147


--------------------------------------------------------------------------------------------------------




--------------------------------------- Iteration      1(   4)  ---------------------------------------


    EDDIAG:  cpu time    2.5766: real time    2.5803
  RMM-DIIS:  cpu time    3.3839: real time    3.3892
    ORTHCH:  cpu time    0.5884: real time    0.5885
       DOS:  cpu time    0.0029: real time    0.0029
    --------------------------------------------
      LOOP:  cpu time    6.5518: real time    6.5609

 eigenvalue-minimisations  :  1200
 total energy-change (2. order) :-0.1395746E+04  (-0.1396111E+04)
 number of electron     616.0000000 magnetization 
 augmentation part      616.0000000 magnetization 

 Free energy of the ion-electron system (eV)
  ---------------------------------------------------
  alpha Z        PSCENC =       517.19255214
  Ewald energy   TEWEN  =     42481.95168415
  -Hartree energ DENC   =    -69575.90430268
  -exchange      EXHF   =         0.00000000
  -V(xc)+E(xc)   XCENC  =      2271.86118346
  PAW double counting   =     25034.14638475   -25847.60581054
  entropy T*S    EENTRO =        -0.02217030
  eigenvalues    EBANDS =     -7682.28458200
  atomic energy  EATOM  =     32433.67991533
  Solvation  Ediel_sol  =         0.00000000
  ---------------------------------------------------
  free energy    TOTEN  =      -366.98514569 eV

  energy without entropy =     -366.96297539  energy(sigma->0) =     -366.97406054


--------------------------------------------------------------------------------------------------------




--------------------------------------- Iteration      1(   5)  ---------------------------------------


    EDDIAG:  cpu time    2.5686: real time    2.5724
  RMM-DIIS:  cpu time    3.3736: real time    3.3788
    ORTHCH:  cpu time    0.5831: real time    0.5841
       DOS:  cpu time    0.0028: real time    0.0028
    --------------------------------------------
      LOOP:  cpu time    6.5282: real time    6.5382

 eigenvalue-minimisations  :  1200
 total energy-change (2. order) :-0.5770932E+03  (-0.5135184E+03)
 number of electron     616.0000000 magnetization 
 augmentation part      616.0000000 magnetization 

 Free energy of the ion-electron system (eV)
  ---------------------------------------------------
  alpha Z        PSCENC =       517.19255214
  Ewald energy   TEWEN  =     42481.95168415
  -Hartree energ DENC   =    -69575.90430268
  -exchange      EXHF   =         0.00000000
  -V(xc)+E(xc)   XCENC  =      2271.86118346
  PAW double counting   =     25034.14638475   -25847.60581054
  entropy T*S    EENTRO =        -0.01086941
  eigenvalues    EBANDS =     -8259.38913167
  atomic energy  EATOM  =     32433.67991533
  Solvation  Ediel_sol  =         0.00000000
  ---------------------------------------------------
  free energy    TOTEN  =      -944.07839447 eV

  energy without entropy =     -944.06752505  energy(sigma->0) =     -944.07295976


--------------------------------------------------------------------------------------------------------




--------------------------------------- Iteration      1(   6)  ---------------------------------------


    EDDIAG:  cpu time    2.5786: real time    2.5812
  RMM-DIIS:  cpu time    3.3817: real time    3.3867
    ORTHCH:  cpu time    0.5864: real time    0.5880
       DOS:  cpu time    0.0020: real time    0.0020
    --------------------------------------------
      LOOP:  cpu time    6.5488: real time    6.5579

 eigenvalue-minimisations  :  1200
 total energy-change (2. order) :-0.1999370E+03  (-0.1737265E+03)
 number of electron     616.0000000 magnetization 
 augmentation part      616.0000000 magnetization 

 Free energy of the ion-electron system (eV)
  ---------------------------------------------------
  alpha Z        PSCENC =       517.19255214
  Ewald energy   TEWEN  =     42481.95168415
  -Hartree energ DENC   =    -69575.90430268
  -exchange      EXHF   =         0.00000000
  -V(xc)+E(xc)   XCENC  =      2271.86118346
  PAW double counting   =     25034.14638475   -25847.60581054
  entropy T*S    EENTRO =        -0.00000000
  eigenvalues    EBANDS =     -8459.33695531
  atomic energy  EATOM  =     32433.67991533
  Solvation  Ediel_sol  =         0.00000000
  ---------------------------------------------------
  free energy    TOTEN  =     -1144.01534870 eV

  energy without entropy =    -1144.01534870  energy(sigma->0) =    -1144.01534870


--------------------------------------------------------------------------------------------------------




--------------------------------------- Iteration      1(   7)  ---------------------------------------


    EDDIAG:  cpu time    2.5732: real time    2.5771
  RMM-DIIS:  cpu time    3.3867: real time    3.3914
    ORTHCH:  cpu time    0.5823: real time    0.5828
       DOS:  cpu time    0.0020: real time    0.0020
    --------------------------------------------
      LOOP:  cpu time    6.5443: real time    6.5533

 eigenvalue-minimisations  :  1200
 total energy-change (2. order) :-0.6039502E+02  (-0.5618427E+02)
 number of electron     616.0000000 magnetization 
 augmentation part      616.0000000 magnetization 

 Free energy of the ion-electron system (eV)
  ---------------------------------------------------
  alpha Z        PSCENC =       517.19255214
  Ewald energy   TEWEN  =     42481.95168415
  -Hartree energ DENC   =    -69575.90430268
  -exchange      EXHF   =         0.00000000
  -V(xc)+E(xc)   XCENC  =      2271.86118346
  PAW double counting   =     25034.14638475   -25847.60581054
  entropy T*S    EENTRO =        -0.00000000
  eigenvalues    EBANDS =     -8519.73197310
  atomic energy  EATOM  =     32433.67991533
  Solvation  Ediel_sol  =         0.00000000
  ---------------------------------------------------
  free energy    TOTEN  =     -1204.41036649 eV

  energy without entropy =    -1204.41036649  energy(sigma->0) =    -1204.41036649


--------------------------------------------------------------------------------------------------------




--------------------------------------- Iteration      1(   8)  ---------------------------------------


    EDDIAG:  cpu time    2.5724: real time    2.5764
  RMM-DIIS:  cpu time    3.3806: real time    3.3856
    ORTHCH:  cpu time    0.5875: real time    0.5885
       DOS:  cpu time    0.0010: real time    0.0010
    --------------------------------------------
      LOOP:  cpu time    6.5416: real time    6.5515

 eigenvalue-minimisations  :  1200
 total energy-change (2. order) :-0.2245318E+02  (-0.1952276E+02)
 number of electron     616.0000000 magnetization 
 augmentation part      616.0000000 magnetization 

 Free energy of the ion-electron system (eV)
  ---------------------------------------------------
  alpha Z        PSCENC =       517.19255214
  Ewald energy   TEWEN  =     42481.95168415
  -Hartree energ DENC   =    -69575.90430268
  -exchange      EXHF   =         0.00000000
  -V(xc)+E(xc)   XCENC  =      2271.86118346
  PAW double counting   =     25034.14638475   -25847.60581054
  entropy T*S    EENTRO =        -0.00000000
  eigenvalues    EBANDS =     -8542.18515751
  atomic energy  EATOM  =     32433.67991533
  Solvation  Ediel_sol  =         0.00000000
  ---------------------------------------------------
  free energy    TOTEN  =     -1226.86355090 eV

  energy without entropy =    -1226.86355090  energy(sigma->0) =    -1226.86355090


--------------------------------------------------------------------------------------------------------




--------------------------------------- Iteration      1(   9)  ---------------------------------------


    EDDIAG:  cpu time    2.5665: real time    2.5694
  RMM-DIIS:  cpu time    7.1698: real time    7.1944
    ORTHCH:  cpu time    0.5844: real time    0.5854
       DOS:  cpu time    0.0023: real time    0.0022
    --------------------------------------------
      LOOP:  cpu time   10.3230: real time   10.3514

 eigenvalue-minimisations  :  2802
 total energy-change (2. order) :-0.1235403E+02  (-0.1182600E+02)
 number of electron     616.0000000 magnetization 
 augmentation part      616.0000000 magnetization 

 Free energy of the ion-electron system (eV)
  ---------------------------------------------------
  alpha Z        PSCENC =       517.19255214
  Ewald energy   TEWEN  =     42481.95168415
[...]
   -.460E+01 0.215E+03 -.135E+02   -.174E+02 -.207E+03 0.222E+02   0.220E+02 -.790E+01 -.873E+01   -.236E-05 0.239E-04 0.141E-04
   -.248E+03 -.589E+02 -.921E+02   0.245E+03 0.412E+02 0.106E+03   0.310E+01 0.178E+02 -.138E+02   0.110E-04 -.232E-04 0.838E-05
   0.247E+03 0.599E+02 0.920E+02   -.244E+03 -.422E+02 -.106E+03   -.310E+01 -.178E+02 0.138E+02   -.109E-04 0.239E-04 -.901E-05
   0.248E+03 0.592E+02 0.918E+02   -.245E+03 -.415E+02 -.106E+03   -.312E+01 -.178E+02 0.137E+02   -.110E-04 0.238E-04 -.848E-05
   -.622E+01 -.214E+03 0.141E+02   -.157E+02 0.206E+03 -.229E+02   0.220E+02 0.791E+01 0.878E+01   -.200E-05 -.238E-04 -.147E-04
   0.511E+01 0.215E+03 -.140E+02   0.168E+02 -.207E+03 0.228E+02   -.220E+02 -.790E+01 -.877E+01   0.335E-05 0.246E-04 0.140E-04
   0.516E+01 -.215E+03 0.139E+02   0.168E+02 0.207E+03 -.226E+02   -.220E+02 0.788E+01 0.876E+01   0.273E-05 -.242E-04 -.137E-04
   0.112E+03 -.103E+03 -.182E+02   -.113E+03 0.103E+03 0.182E+02   0.652E+00 -.198E+00 -.311E-01   -.276E-04 -.926E-05 0.744E-05
   0.113E+03 0.102E+03 0.181E+02   -.113E+03 -.102E+03 -.182E+02   0.669E+00 0.197E+00 0.382E-01   -.300E-04 0.103E-04 -.616E-05
   -.112E+03 -.102E+03 -.182E+02   0.113E+03 0.103E+03 0.183E+02   -.668E+00 -.192E+00 -.435E-01   0.274E-04 -.750E-05 0.721E-05
   -.112E+03 0.102E+03 0.181E+02   0.113E+03 -.103E+03 -.181E+02   -.650E+00 0.210E+00 0.278E-01   0.296E-04 0.969E-05 -.678E-05
   -.112E+03 0.102E+03 0.181E+02   0.112E+03 -.103E+03 -.182E+02   -.657E+00 0.201E+00 0.328E-01   0.289E-04 0.957E-05 -.477E-05
   0.112E+03 -.102E+03 -.182E+02   -.113E+03 0.103E+03 0.183E+02   0.654E+00 -.204E+00 -.339E-01   -.289E-04 -.898E-05 0.631E-05
   -.112E+03 -.102E+03 -.181E+02   0.113E+03 0.102E+03 0.181E+02   -.652E+00 -.199E+00 -.318E-01   0.308E-04 -.116E-04 0.362E-05
   0.112E+03 0.103E+03 0.180E+02   -.113E+03 -.103E+03 -.180E+02   0.647E+00 0.212E+00 0.232E-01   -.301E-04 0.695E-05 -.705E-05
   0.308E+03 0.186E+03 0.192E+03   -.299E+03 -.226E+03 -.227E+03   -.874E+01 0.401E+02 0.355E+02   -.302E-04 0.271E-05 -.210E-04
   -.191E+03 -.278E+03 -.295E+03   0.218E+03 0.275E+03 0.342E+03   -.267E+02 0.311E+01 -.476E+02   -.595E-04 0.124E-04 0.515E-04
   -.191E+03 0.278E+03 0.295E+03   0.218E+03 -.275E+03 -.342E+03   -.267E+02 -.308E+01 0.476E+02   -.611E-04 -.913E-05 -.488E-04
   0.192E+03 -.279E+03 -.295E+03   -.219E+03 0.276E+03 0.342E+03   0.268E+02 0.300E+01 -.475E+02   0.587E-04 0.123E-04 0.505E-04
   0.191E+03 0.278E+03 0.295E+03   -.218E+03 -.275E+03 -.342E+03   0.268E+02 -.311E+01 0.476E+02   0.602E-04 -.106E-04 -.514E-04
   -.307E+03 -.186E+03 -.192E+03   0.298E+03 0.227E+03 0.227E+03   0.879E+01 -.401E+02 -.355E+02   0.323E-04 -.324E-05 0.197E-04
   -.308E+03 0.186E+03 0.192E+03   0.299E+03 -.227E+03 -.228E+03   0.874E+01 0.401E+02 0.355E+02   0.298E-04 0.361E-05 -.202E-04
   -.307E+03 -.187E+03 -.192E+03   0.299E+03 0.227E+03 0.228E+03   0.878E+01 -.400E+02 -.356E+02   0.319E-04 -.335E-05 0.208E-04
   0.308E+03 0.187E+03 0.192E+03   -.299E+03 -.227E+03 -.227E+03   -.879E+01 0.401E+02 0.355E+02   -.318E-04 0.613E-05 -.195E-04
   0.192E+03 0.278E+03 0.295E+03   -.219E+03 -.275E+03 -.342E+03   0.267E+02 -.305E+01 0.476E+02   0.602E-04 -.125E-04 -.516E-04
   0.191E+03 -.278E+03 -.295E+03   -.218E+03 0.275E+03 0.342E+03   0.267E+02 0.314E+01 -.476E+02   0.625E-04 0.111E-04 0.516E-04
   -.191E+03 0.278E+03 0.295E+03   0.218E+03 -.275E+03 -.342E+03   -.267E+02 -.316E+01 0.476E+02   -.622E-04 -.140E-04 -.502E-04
   0.307E+03 -.187E+03 -.193E+03   -.298E+03 0.227E+03 0.228E+03   -.883E+01 -.400E+02 -.355E+02   -.316E-04 -.385E-05 0.192E-04
   -.308E+03 0.187E+03 0.192E+03   0.299E+03 -.227E+03 -.228E+03   0.874E+01 0.401E+02 0.355E+02   0.340E-04 0.533E-05 -.192E-04
   0.307E+03 -.186E+03 -.193E+03   -.298E+03 0.226E+03 0.228E+03   -.878E+01 -.400E+02 -.356E+02   -.316E-04 -.739E-05 0.187E-04
   -.191E+03 -.278E+03 -.295E+03   0.217E+03 0.275E+03 0.342E+03   -.267E+02 0.310E+01 -.476E+02   -.605E-04 0.104E-04 0.515E-04
 -----------------------------------------------------------------------------------------------
   0.177E-02 -.233E+00 0.244E+00   -.199E-12 -.568E-12 -.398E-12   0.141E-01 0.231E+00 -.231E+00   0.658E-05 0.105E-04 0.173E-05
 
 
 POSITION                                       TOTAL-FORCE (eV/Angst)
 -----------------------------------------------------------------------------------
     21.73373     24.70544     -4.38513         0.000019     -0.000020     -0.001098
     20.61255     24.04951     -2.57348         0.002056      0.001800      0.003793
     21.72870     19.30473      1.33051         0.000083     -0.000688      0.001441
     13.02744     11.41203      1.67120        -0.000089      0.000483     -0.001524
     14.15174      7.62274     -0.92224        -0.002769     -0.002293     -0.001443
      2.56417     20.43769     -3.72950        -0.002622     -0.002390     -0.001067
     14.15060     10.75582      3.48155        -0.002714      0.002072      0.001533
     13.03125      6.96471      0.88904        -0.001057     -0.000444      0.001563
      9.02236     11.22948      0.23507         0.002523      0.002960      0.001416
      1.44090     19.77978     -1.92002        -0.001153     -0.000535      0.001149
      2.56666     23.56951      0.67234        -0.002124      0.002511      0.002818
      9.02354      7.14448      2.32753         0.002273     -0.002679     -0.001936
     20.60754     19.96545     -0.47925         0.003031     -0.002358     -0.001730
      1.44628     24.22665     -1.13928        -0.000134      0.000599     -0.001025
     10.14416      6.48720      4.13907         0.000713     -0.000561      0.001368
     10.14278     11.88804     -1.57613        -0.000019      0.000951     -0.001191
     18.95071      0.33847      0.50249         0.004724      0.000186     -0.002877
     19.48053      1.36954      2.73214         0.000295      0.000487      0.003064
     19.47186     17.01044     -0.18193         0.000731     -0.000395     -0.001523
     15.27726     13.71541      3.17968         0.000554     -0.000459      0.001780
     15.28518      4.66755     -0.62565        -0.001107     -0.000402     -0.001978
      4.22387     18.51381     -1.19973        -0.005332      0.000464      0.003288
     15.80820     12.68134      0.95143        -0.004607      0.000505     -0.002847
     15.81444      5.69767      1.60468        -0.004621     -0.000284      0.002573
      7.36041     13.15316     -2.29389         0.006393     -0.002420     -0.004580
      3.69619     17.48105     -3.42920        -0.001794     -0.000714     -0.003347
      3.69590      0.88953      5.98041        -0.000355      0.000160      0.002069
      7.89007      4.19033      2.62359         0.001155     -0.000936     -0.001967
     18.94422     18.04177      2.04832         0.004759     -0.001341      0.002519
      4.22510     -0.13977      3.74975        -0.005507      0.000342     -0.002127
      7.36145      5.21883      4.85490         0.005279     -0.000055      0.001464
      7.88762     14.18534     -0.06394         0.001834     -0.000036      0.003669
     17.99258      1.44157      0.24836         0.002795      0.001556     -0.001723
     18.55550      2.48196      2.40915        -0.001620      0.000807      0.001123
     18.54600     15.89887      0.14138        -0.002237     -0.002114     -0.000695
     16.20341     14.82678      2.85610         0.002067      0.000249      0.000720
     16.21178      3.55604     -0.30384         0.001162     -0.000894     -0.000944
      5.18274     17.41172     -0.94464        -0.002923     -0.002146      0.001298
     16.76611     13.78434      0.69600        -0.002749      0.001300     -0.002569
     16.77429      4.59595      1.85729        -0.003295     -0.002070      0.001199
      6.40176     14.25529     -2.54920         0.002443      0.003398     -0.000937
      4.62206     16.36959     -3.10508         0.000987     -0.000387      0.000001
      4.62106      2.00213      5.65800         0.001437      0.000289      0.000670
      6.96399      3.07835      2.94505        -0.001325     -0.000402     -0.000497
     17.98444     16.94028      2.30220         0.003691     -0.002668      0.000341
      5.18331      0.96343      3.49623        -0.002460      0.003235     -0.001673
      6.40197      4.11671      5.10715         0.002106     -0.003074      0.000392
      6.96262     15.29741     -0.38855        -0.001328      0.001364      0.000637
     17.26186      0.50261      5.56370         0.005583     -0.000072     -0.002938
     18.39374      3.52558      3.31344        -0.002948     -0.001159      0.003245
     18.38415     14.85459     -0.76207        -0.002737      0.002143     -0.002458
     16.36383     16.82742     -2.73665         0.003030     -0.001111      0.003345
     16.37540      1.55617      5.28804         0.002646      0.001711     -0.002448
      5.91369     17.39523      0.23716        -0.005411     -0.000115      0.002830
     17.49813     13.80098     -0.48521        -0.005782     -0.000237     -0.002906
     17.50672      4.57870      3.03816        -0.005731     -0.001205      0.002248
      5.67176     13.31498      2.76575         0.004966      0.000545     -0.003736
      4.78577     14.36846      2.48830         0.002957      0.000760     -0.002162
      4.78125      4.00157      0.06668         0.003451     -0.000909      0.003199
      6.80176      2.03562      2.03992        -0.003686      0.000757     -0.002513
     17.25090     17.88025     -3.01280         0.004877     -0.001542      0.002287
      5.91538      0.98184      2.31509        -0.005765     -0.000004     -0.003829
      5.66803      5.05507     -0.20811         0.005519     -0.000170      0.002812
      6.79992     16.34197      0.51457        -0.002373     -0.000851      0.003117
     20.59826     24.98084     -3.61752         0.002143      0.001284      0.000227
     20.59180     19.03315      0.56348         0.002794     -0.001765      0.000220
     14.16327     11.68777      2.43806        -0.002279      0.001013      0.000003
     14.16685      6.69076      0.12093        -0.003406     -0.001138      0.000224
      2.57773     19.50572     -2.68627        -0.002832     -0.002045     -0.000117
      9.00701     12.16150     -0.80818         0.002338      0.002153     -0.000417
      2.58146     24.50164     -0.37100        -0.002427      0.000814      0.000266
      9.00848      6.21301      3.37113         0.002945     -0.001564     -0.000425
     17.83408      2.48442      1.19183         0.000997     -0.000528      0.000121
     17.82492     15.89725      1.35893         0.002120      0.001029     -0.000357
     16.92475     14.82794      1.63870        -0.001355     -0.001158     -0.000044
     16.93357      3.55371      0.91324        -0.001705      0.000775      0.000280
      5.34261     16.36831     -1.88727        -0.001795      0.000602     -0.000214
      6.24259     15.29899     -1.60672         0.001105     -0.000692     -0.000597
      5.34214      2.00556      4.44048        -0.001718     -0.000977     -0.000252
      6.24267      3.07503      4.16245         0.001771      0.000930     -0.000387
      0.56129     22.48151     -4.77695         0.002394      0.000942     -0.001512
     22.61476     22.00430     -1.52596         0.000655      0.000301      0.000863
     11.02668      9.18686      1.28099         0.001479      0.000694      0.001284
     12.14784      9.66630     -1.96718        -0.000889      0.000363      0.000322
      7.37470      2.06186      1.11325        -0.004696      0.000419     -0.004182
     17.36085     12.98287     -1.19152        -0.006751      0.002759     -0.004260
     17.36885      5.39580      3.74547        -0.007170     -0.001928      0.004435
     17.39912     -0.31481      4.85660         0.006721      0.003122     -0.003566
     17.38945     18.69753     -2.30582         0.006350     -0.001847      0.003681
     15.79047     16.80277     -1.81013         0.005926     -0.000926      0.002404
      4.21300     14.39288      1.56147         0.004437      0.000573     -0.003553
      4.20803      3.97546      0.99320         0.005778     -0.000754      0.003405
     18.95710     14.87956     -1.68877        -0.004941      0.000544     -0.003921
      5.80594      5.87172      0.49976         0.006810     -0.002586      0.003806
      5.80948     12.49678      2.05967         0.006722      0.003237     -0.003635
      5.77526     18.21302      0.94361        -0.006665     -0.002436      0.003825
      7.37210     16.31714      1.44172        -0.005158     -0.000255      0.003164
     15.80196      1.58161      4.36165         0.004862      0.000435     -0.003751
     18.96719      3.50016      4.23983        -0.006168     -0.000756      0.003253
      5.77778      0.16501      1.60737        -0.006887      0.002898     -0.003725
     14.81957     11.59303     -2.16827        -0.004612      0.003282      0.002998
      8.35345      7.26467      1.48071         0.004782     -0.004029     -0.003046
     10.50094     12.36003     -2.48535        -0.000976     -0.000373     -0.003239
      1.08130     19.30798     -1.01128         0.000086     -0.000015      0.002718
      3.23482     24.40580     -4.97699        -0.004463      0.004370      0.003548
     10.50094      6.97182     -1.44803        -0.000470      0.000439      0.002859
     22.09260     25.17644     -5.29464        -0.001656     -0.000992     -0.002065
     19.93718     20.08729     -1.32563         0.004676     -0.003644     -0.002834
      1.08783     24.69812     -2.04870         0.001003     -0.000572     -0.002330
     12.66755     11.88326      0.76225         0.001152     -0.000462     -0.002839
     14.82328      6.78664      4.72697        -0.004909     -0.003693     -0.002400
     19.94241     23.93012     -1.72662         0.004589      0.003905      0.003358
     12.67279      6.49256      1.79806         0.000134      0.000498      0.002612
      8.35251     11.10856      1.08197         0.004121      0.004267      0.002852
      3.23681     19.60147      1.92056        -0.004507     -0.003637     -0.002807
     22.08545     19.78794     -4.25732        -0.000881      0.000326      0.002934
     22.38935     23.67032     -3.83204        -0.000529      0.000723     -0.000272
     21.69376     23.26073     -2.72701         0.000883      0.002372      0.001400
     22.38647     20.33896      0.77840         0.000084     -0.000264      0.001028
     12.37326     10.37587      2.22393        -0.000094      0.000793     -0.000904
     13.07022      8.41087     -0.76764        -0.001564     -0.001508     -0.000791
      1.48231     21.22571     -3.57678        -0.001682     -0.001224     -0.000778
     13.06997      9.96620      3.32818        -0.001743      0.001795      0.000638
     12.37506      8.00008      0.33717        -0.000238     -0.001057      0.001124
     10.10437     10.44199      0.08069         0.001252      0.002139      0.000932
      0.78548     20.81506     -2.47294         0.000008     -0.001368      0.001307
      1.48552     22.78071      0.51789        -0.001252      0.002793      0.001422
     10.10514      7.93247      2.48166         0.002456     -0.001258     -0.000443
     21.69082     20.75140     -0.32554         0.001571     -0.001802     -0.000196
      0.79046     23.19108     -0.58721         0.000202      0.001022     -0.000070
     10.80050      7.52218      3.58655        -0.000360     -0.000793      0.000646
     10.79953     10.85322     -1.02393         0.000025      0.000929     -0.000871
     19.64295      0.37238      1.73932         0.001158      0.002071      0.000034
     19.63608     18.00688      0.81139         0.002058     -0.002585      0.000175
     15.11613     12.71651      2.18835        -0.001175      0.002312     -0.000447
     15.12153      5.66340      0.36832        -0.001945     -0.003046      0.000294
      3.53218     18.47845     -2.43681        -0.002497     -0.002869      0.000087
      8.05213     13.18851     -1.05680         0.001127      0.003448     -0.000903
      3.53294     -0.10679      4.98674        -0.000978      0.003309     -0.000512
      8.05402      5.18542      3.61831         0.002024     -0.003414      0.000261
     19.14962     24.11556      0.58352         0.006125      0.004546     -0.002143
     20.08111      1.30167      3.80200        -0.003619      0.001133      0.001930
     20.07244     17.07768     -1.25183        -0.001960     -0.001363     -0.002358
     14.67295     14.60624     -2.24773         0.004263      0.000241      0.002752
     14.68582      3.77913      4.80108         0.002274     -0.001493     -0.002431
      4.02762     19.41752     -0.39050        -0.005024     -0.004286      0.001174
     15.61301     11.77680      0.14292        -0.004926      0.003730     -0.002838
     15.61848      6.60026      2.41517        -0.004678     -0.003202      0.002230
      7.55841     11.29267      3.39356         0.005900      0.007087     -0.002181
      3.09747     16.59117      1.99703         0.003109     -0.001329     -0.001311
      3.09395      1.77736      0.55415         0.003057      0.000625      0.002135
      8.49053      4.25928      1.55374        -0.001684     -0.001892     -0.001766
     19.13964     19.90077     -3.63778         0.006254     -0.004146      0.003065
      4.03193     24.59432     -2.66609        -0.006137      0.004204     -0.002816
      7.55570      7.07746     -0.83050         0.004416     -0.003286      0.001646
      8.48700     14.11777      1.00662        -0.003499      0.002223     -0.000117
 -----------------------------------------------------------------------------------
    total drift:                                0.015845     -0.001659      0.012461


--------------------------------------------------------------------------------------------------------



  FREE ENERGIE OF THE ION-ELECTRON SYSTEM (eV)
  ---------------------------------------------------
  free  energy   TOTEN  =     -1162.02972080 eV

  energy  without entropy=    -1162.02972080  energy(sigma->0) =    -1162.02972080
 


--------------------------------------------------------------------------------------------------------


    POTLOK:  cpu time    0.1701: real time    0.1701


--------------------------------------------------------------------------------------------------------


 Quasi-Newton relaxation of ions (Broydens 2nd method)
  g(Force)  = 0.158E-03   g(Stress)= 0.929E-05

 Reset! Starting new Quasi-Newton update for ions 


--------------------------------------------------------------------------------------------------------


  
 reached required accuracy - stopping structural energy minimisation
 writing wavefunctions
     LOOP+:  cpu time  383.3230: real time  387.1555
    4ORBIT:  cpu time    0.0000: real time    0.0000

 total amount of memory used by VASP MPI-rank0   105426. kBytes
=======================================================================

   base      :      30000. kBytes
   nonlr-proj:       6195. kBytes
   fftplans  :      11211. kBytes
   grid      :      19494. kBytes
   one-center:        606. kBytes
   wavefun   :      37920. kBytes
 
  
  
 General timing and accounting informations for this job:
 ========================================================
  
                  Total CPU time used (sec):      471.626
                            User time (sec):      420.298
                          System time (sec):       51.328
                         Elapsed time (sec):      477.268
  
                   Maximum memory used (kb):     1006064.
                   Average memory used (kb):           0.
  
                          Minor page faults:       238062
                          Major page faults:            5
                 Voluntary context switches:        10531
