       N       E                     dE             d eps       ncg     rms          rms(c)
DAV:   1     0.539056726059E+04    0.53906E+04   -0.27571E+05  4608   0.145E+03
DAV:   2    -0.350575633510E+03   -0.57411E+04   -0.55310E+04  6176   0.324E+02
DAV:   3    -0.125693025170E+04   -0.90635E+03   -0.89780E+03  5536   0.137E+02
DAV:   4    -0.129485314373E+04   -0.37923E+02   -0.37635E+02  6944   0.410E+01
DAV:   5    -0.129548525580E+04   -0.63211E+00   -0.62924E+00  6048   0.406E+00
DAV:   6    -0.129552128380E+04   -0.36028E-01   -0.36000E-01  7168   0.120E+00
DAV:   7    -0.129552180095E+04   -0.51715E-03   -0.51676E-03  6016   0.114E-01
DAV:   8    -0.129552182642E+04   -0.25469E-04   -0.25466E-04  7200   0.262E-02    0.816E+01
DAV:   9    -0.142627322448E+04   -0.13075E+03   -0.16363E+03  6944   0.658E+01    0.233E+02
DAV:  10    -0.133698031034E+04    0.89293E+02   -0.14554E+02  6272   0.393E+01    0.145E+02
DAV:  11    -0.116123091698E+04    0.17575E+03   -0.23516E+02  6688   0.125E+02    0.558E+01
DAV:  12    -0.116569916511E+04   -0.44682E+01   -0.87436E+01  5728   0.142E+01    0.235E+01
DAV:  13    -0.117848380580E+04   -0.12785E+02   -0.15643E+02  6368   0.194E+01    0.590E+01
DAV:  14    -0.116978019669E+04    0.87036E+01   -0.32634E+02  6752   0.271E+01    0.358E+01
DAV:  15    -0.116273912054E+04    0.70411E+01   -0.64665E+01  6240   0.118E+01    0.147E+01
DAV:  16    -0.116650467856E+04   -0.37656E+01   -0.12940E+01  6112   0.723E+00    0.173E+01
DAV:  17    -0.116652777968E+04   -0.23101E-01   -0.99687E+00  6816   0.685E+00    0.115E+01
DAV:  18    -0.116852934205E+04   -0.20016E+01   -0.24506E+00  5952   0.363E+00    0.989E+00
DAV:  19    -0.116958972991E+04   -0.10604E+01   -0.20858E+00  6784   0.359E+00    0.880E+00
DAV:  20    -0.117040106567E+04   -0.81134E+00   -0.99474E-01  6624   0.261E+00    0.810E+00
DAV:  21    -0.117105705768E+04   -0.65599E+00   -0.16266E-01  6048   0.124E+00    0.699E+00
DAV:  22    -0.117247853482E+04   -0.14215E+01   -0.73141E-01  5504   0.167E+00    0.570E+00
DAV:  23    -0.117286709774E+04   -0.38856E+00   -0.21988E-01  5888   0.112E+00    0.452E+00
DAV:  24    -0.117336185233E+04   -0.49475E+00   -0.14835E-01  5696   0.804E-01    0.410E+00
DAV:  25    -0.117377028679E+04   -0.40843E+00   -0.11660E-01  5920   0.673E-01    0.342E+00
DAV:  26    -0.117410893861E+04   -0.33865E+00   -0.14311E-01  5536   0.824E-01    0.278E+00
DAV:  27    -0.117419086551E+04   -0.81927E-01   -0.58056E-02  5824   0.440E-01    0.219E+00
DAV:  28    -0.117428241996E+04   -0.91554E-01   -0.37312E-02  5568   0.314E-01    0.178E+00
DAV:  29    -0.117431066284E+04   -0.28243E-01   -0.56829E-03  5984   0.148E-01    0.161E+00
DAV:  30    -0.117435101396E+04   -0.40351E-01   -0.39588E-03  5536   0.145E-01    0.140E+00
DAV:  31    -0.117440484329E+04   -0.53829E-01   -0.47440E-03  6176   0.217E-01    0.991E-01
DAV:  32    -0.117443068878E+04   -0.25845E-01   -0.27352E-03  6400   0.141E-01    0.779E-01
DAV:  33    -0.117445228285E+04   -0.21594E-01   -0.33968E-03  6016   0.118E-01    0.616E-01
DAV:  34    -0.117447117816E+04   -0.18895E-01   -0.24833E-03  5888   0.941E-02    0.460E-01
DAV:  35    -0.117448890800E+04   -0.17730E-01   -0.15508E-03  6176   0.124E-01    0.224E-01
DAV:  36    -0.117449757397E+04   -0.86660E-02   -0.67966E-04  6272   0.670E-02    0.122E-01
DAV:  37    -0.117450415920E+04   -0.65852E-02   -0.26851E-04  6080   0.476E-02    0.688E-02
DAV:  38    -0.117450892143E+04   -0.47622E-02   -0.19574E-04  5824   0.401E-02    0.627E-02
DAV:  39    -0.117451048759E+04   -0.15662E-02   -0.74883E-05  6176   0.266E-02    0.324E-02
DAV:  40    -0.117451270944E+04   -0.22218E-02   -0.78047E-05  5504   0.177E-02    0.437E-02
DAV:  41    -0.117451391214E+04   -0.12027E-02   -0.49228E-05  5696   0.168E-02    0.567E-02
DAV:  42    -0.117451453536E+04   -0.62323E-03   -0.19599E-05  5312   0.934E-03    0.483E-02
DAV:  43    -0.117451508360E+04   -0.54824E-03   -0.18961E-05  5056   0.765E-03    0.371E-02
DAV:  44    -0.117451545272E+04   -0.36911E-03   -0.17496E-05  4992   0.781E-03    0.250E-02
DAV:  45    -0.117451560282E+04   -0.15010E-03   -0.54138E-06  4992   0.471E-03    0.173E-02
DAV:  46    -0.117451572435E+04   -0.12153E-03   -0.30089E-06  4576   0.345E-03    0.975E-03
DAV:  47    -0.117451583453E+04   -0.11018E-03   -0.27786E-06  4224   0.279E-03    0.409E-03
DAV:  48    -0.117451589138E+04   -0.56845E-04   -0.10057E-06  3936   0.178E-03    0.210E-03
DAV:  49    -0.117451592497E+04   -0.33599E-04   -0.61849E-07  3744   0.142E-03    0.154E-03
DAV:  50    -0.117451594531E+04   -0.20340E-04   -0.50370E-07  3776   0.107E-03    0.176E-03
DAV:  51    -0.117451595018E+04   -0.48651E-05   -0.19230E-07  3616   0.793E-04    0.140E-03
DAV:  52    -0.117451595430E+04   -0.41206E-05   -0.25132E-07  3680   0.703E-04    0.184E-03
DAV:  53    -0.117451595750E+04   -0.32040E-05   -0.16698E-07  3552   0.677E-04    0.144E-03
DAV:  54    -0.117451596057E+04   -0.30673E-05   -0.11732E-07  3424   0.718E-04    0.519E-04
DAV:  55    -0.117451596360E+04   -0.30286E-05   -0.12082E-07  3520   0.495E-04    0.513E-04
DAV:  56    -0.117451596591E+04   -0.23132E-05   -0.45891E-08  3392   0.391E-04    0.378E-04
DAV:  57    -0.117451596807E+04   -0.21586E-05   -0.56797E-08  3424   0.311E-04    0.231E-04
DAV:  58    -0.117451596997E+04   -0.18985E-05   -0.41716E-08  3392   0.306E-04    0.194E-04
DAV:  59    -0.117451596983E+04    0.14155E-06   -0.13912E-08  3136   0.227E-04
   1 F= -.11859900E+04 E0= -.11859750E+04  d E =-.118599E+04  mag=    -0.0000
