 vasp.6.0.8 29Jun18 (build Mar 14 2019 11:44:20) complex                        
  
 executed on             LinuxIFC date 2020.12.25  22:47:51
 running  128 mpi-ranks, with    1 threads/rank
 distrk:  each k-point on  128 cores,    1 groups
 distr:  one band on NCORES_PER_BAND=   4 cores,   32 groups


--------------------------------------------------------------------------------------------------------


 INCAR:
 POTCAR:    PAW_PBE C 08Apr2002                   
 POTCAR:    PAW_PBE Fe 06Sep2000                  
 POTCAR:    PAW_PBE H 15Jun2001                   
 POTCAR:    PAW_PBE N 08Apr2002                   
 POTCAR:    PAW_PBE O 08Apr2002                   
 POTCAR:    PAW_PBE C 08Apr2002                   
   VRHFIN =C: s2p2                                                              
   LEXCH  = PE                                                                  
   EATOM  =   147.1560 eV,   10.8157 Ry                                         
                                                                                
   TITEL  = PAW_PBE C 08Apr2002                                                 
   LULTRA =        F    use ultrasoft PP ?                                      
   IUNSCR =        1    unscreen: 0-lin 1-nonlin 2-no                           
   RPACOR =    1.200    partial core radius                                     
   POMASS =   12.011; ZVAL   =    4.000    mass and valenz                      
   RCORE  =    1.500    outmost cutoff radius                                   
   RWIGS  =    1.630; RWIGS  =    0.863    wigner-seitz radius (au A)           
   ENMAX  =  400.000; ENMIN  =  300.000 eV                                      
   ICORE  =        2    local potential                                         
   LCOR   =        T    correct aug charges                                     
   LPAW   =        T    paw PP                                                  
   EAUG   =  644.873                                                            
   DEXC   =    0.000                                                            
   RMAX   =    1.529    core radius for proj-oper                               
   RAUG   =    1.300    factor for augmentation sphere                          
   RDEP   =    1.501    radius for radial grids                                 
   RDEPT  =    1.300    core radius for aug-charge                              
                                                                                
   Atomic configuration                                                         
    4 entries                                                                   
     n  l   j            E        occ.                                          
     1  0  0.50      -273.3789   2.0000                                         
     2  0  0.50       -13.7508   2.0000                                         
     2  1  0.50        -5.2854   2.0000                                         
     3  2  1.50        -5.4423   0.0000                                         
   Description                                                                  
     l       E           TYP  RCUT    TYP  RCUT                                 
     0    -13.7508458     23  1.200                                             
     0     -8.2022199     23  1.200                                             
     1     -5.2854383     23  1.500                                             
     1     34.0145650     23  1.500                                             
     2     -5.4423304      7  1.500                                             
  local pseudopotential read in
  partial core-charges read in
  partial kinetic energy density read in
  atomic valenz-charges read in
  non local Contribution for L=           0  read in
    real space projection operators read in
  non local Contribution for L=           0  read in
    real space projection operators read in
  non local Contribution for L=           1  read in
    real space projection operators read in
  non local Contribution for L=           1  read in
    real space projection operators read in
    PAW grid and wavefunctions read in
 
   number of l-projection  operators is LMAX  =           4
   number of lm-projection operators is LMMAX =           8
 
 POTCAR:    PAW_PBE Fe 06Sep2000                  
   VRHFIN =Fe:  d7 s1                                                           
   LEXCH  = PE                                                                  
   EATOM  =   594.3153 eV,   43.6809 Ry                                         
                                                                                
   TITEL  = PAW_PBE Fe 06Sep2000                                                
   LULTRA =        F    use ultrasoft PP ?                                      
   IUNSCR =        1    unscreen: 0-lin 1-nonlin 2-no                           
   RPACOR =    2.000    partial core radius                                     
   POMASS =   55.847; ZVAL   =    8.000    mass and valenz                      
   RCORE  =    2.300    outmost cutoff radius                                   
   RWIGS  =    2.460; RWIGS  =    1.302    wigner-seitz radius (au A)           
   ENMAX  =  267.882; ENMIN  =  200.911 eV                                      
   RCLOC  =    1.701    cutoff for local pot                                    
   LCOR   =        T    correct aug charges                                     
   LPAW   =        T    paw PP                                                  
   EAUG   =  511.368                                                            
   DEXC   =    0.000                                                            
   RMAX   =    2.356    core radius for proj-oper                               
   RAUG   =    1.300    factor for augmentation sphere                          
   RDEP   =    2.442    radius for radial grids                                 
   RDEPT  =    1.890    core radius for aug-charge                              
                                                                                
   Atomic configuration                                                         
    9 entries                                                                   
     n  l   j            E        occ.                                          
     1  0  0.50     -6993.8440   2.0000                                         
     2  0  0.50      -814.6047   2.0000                                         
     2  1  1.50      -693.3689   6.0000                                         
     3  0  0.50       -89.4732   2.0000                                         
     3  1  1.50       -55.6373   6.0000                                         
     3  2  2.50        -3.8151   7.0000                                         
     4  0  0.50        -4.2551   1.0000                                         
     4  1  1.50        -3.4015   0.0000                                         
     4  3  2.50        -1.3606   0.0000                                         
   Description                                                                  
     l       E           TYP  RCUT    TYP  RCUT                                 
     2     -3.8151135     23  2.300                                             
     2     -5.1756961     23  2.300                                             
     0     -4.2550963     23  2.300                                             
     0      7.2035603     23  2.300                                             
     1     -2.7211652     23  2.300                                             
     1     18.4316424     23  2.300                                             
  local pseudopotential read in
  partial core-charges read in
  partial kinetic energy density read in
  atomic valenz-charges read in
  non local Contribution for L=           2  read in
    real space projection operators read in
  non local Contribution for L=           2  read in
    real space projection operators read in
  non local Contribution for L=           0  read in
    real space projection operators read in
  non local Contribution for L=           0  read in
    real space projection operators read in
  non local Contribution for L=           1  read in
    real space projection operators read in
  non local Contribution for L=           1  read in
    real space projection operators read in
    PAW grid and wavefunctions read in
 
   number of l-projection  operators is LMAX  =           6
   number of lm-projection operators is LMMAX =          18
 
 POTCAR:    PAW_PBE H 15Jun2001                   
   VRHFIN =H: ultrasoft test                                                    
   LEXCH  = PE                                                                  
   EATOM  =    12.4884 eV,    0.9179 Ry                                         
                                                                                
   TITEL  = PAW_PBE H 15Jun2001                                                 
   LULTRA =        F    use ultrasoft PP ?                                      
   IUNSCR =        0    unscreen: 0-lin 1-nonlin 2-no                           
   RPACOR =    0.000    partial core radius                                     
   POMASS =    1.000; ZVAL   =    1.000    mass and valenz                      
   RCORE  =    1.100    outmost cutoff radius                                   
   RWIGS  =    0.700; RWIGS  =    0.370    wigner-seitz radius (au A)           
   ENMAX  =  250.000; ENMIN  =  200.000 eV                                      
   RCLOC  =    0.701    cutoff for local pot                                    
   LCOR   =        T    correct aug charges                                     
   LPAW   =        T    paw PP                                                  
   EAUG   =  400.000                                                            
   RMAX   =    1.123    core radius for proj-oper                               
   RAUG   =    1.200    factor for augmentation sphere                          
   RDEP   =    1.112    radius for radial grids                                 
   RDEPT  =    0.926    core radius for aug-charge                              
                                                                                
   Atomic configuration                                                         
    2 entries                                                                   
     n  l   j            E        occ.                                          
     1  0  0.50        -6.4927   1.0000                                         
     2  1  0.50        -3.4015   0.0000                                         
   Description                                                                  
     l       E           TYP  RCUT    TYP  RCUT                                 
     0     -6.4927494     23  1.100                                             
     0      6.8029130     23  1.100                                             
     1     -4.0817478     23  1.100                                             
  local pseudopotential read in
  atomic valenz-charges read in
  non local Contribution for L=           0  read in
    real space projection operators read in
  non local Contribution for L=           0  read in
    real space projection operators read in
  non local Contribution for L=           1  read in
    real space projection operators read in
    PAW grid and wavefunctions read in
 
   number of l-projection  operators is LMAX  =           3
   number of lm-projection operators is LMMAX =           5
 
 POTCAR:    PAW_PBE N 08Apr2002                   
   VRHFIN =N: s2p3                                                              
   LEXCH  = PE                                                                  
   EATOM  =   264.5486 eV,   19.4438 Ry                                         
                                                                                
   TITEL  = PAW_PBE N 08Apr2002                                                 
   LULTRA =        F    use ultrasoft PP ?                                      
   IUNSCR =        1    unscreen: 0-lin 1-nonlin 2-no                           
   RPACOR =    1.200    partial core radius                                     
   POMASS =   14.001; ZVAL   =    5.000    mass and valenz                      
   RCORE  =    1.500    outmost cutoff radius                                   
   RWIGS  =    1.400; RWIGS  =    0.741    wigner-seitz radius (au A)           
   ENMAX  =  400.000; ENMIN  =  300.000 eV                                      
   ICORE  =        2    local potential                                         
   LCOR   =        T    correct aug charges                                     
   LPAW   =        T    paw PP                                                  
   EAUG   =  627.112                                                            
   DEXC   =    0.000                                                            
   RMAX   =    1.529    core radius for proj-oper                               
   RAUG   =    1.300    factor for augmentation sphere                          
   RDEP   =    1.514    radius for radial grids                                 
   RDEPT  =    1.338    core radius for aug-charge                              
                                                                                
   Atomic configuration                                                         
    4 entries                                                                   
     n  l   j            E        occ.                                          
     1  0  0.50      -384.7179   2.0000                                         
     2  0  0.50       -18.5828   2.0000                                         
     2  1  0.50        -7.0898   3.0000                                         
     3  2  1.50        -6.8029   0.0000                                         
   Description                                                                  
     l       E           TYP  RCUT    TYP  RCUT                                 
     0    -18.5828119     23  1.200                                             
     0    -13.5018863     23  1.200                                             
     1     -7.0897853     23  1.500                                             
     1      9.5240782     23  1.500                                             
     2     -6.8029130      7  1.500                                             
  local pseudopotential read in
  partial core-charges read in
  partial kinetic energy density read in
  atomic valenz-charges read in
  non local Contribution for L=           0  read in
    real space projection operators read in
  non local Contribution for L=           0  read in
    real space projection operators read in
  non local Contribution for L=           1  read in
    real space projection operators read in
  non local Contribution for L=           1  read in
    real space projection operators read in
    PAW grid and wavefunctions read in
 
   number of l-projection  operators is LMAX  =           4
   number of lm-projection operators is LMMAX =           8
 
 POTCAR:    PAW_PBE O 08Apr2002                   
   VRHFIN =O: s2p4                                                              
   LEXCH  = PE                                                                  
   EATOM  =   432.3788 eV,   31.7789 Ry                                         
                                                                                
   TITEL  = PAW_PBE O 08Apr2002                                                 
   LULTRA =        F    use ultrasoft PP ?                                      
   IUNSCR =        1    unscreen: 0-lin 1-nonlin 2-no                           
   RPACOR =    1.200    partial core radius                                     
   POMASS =   16.000; ZVAL   =    6.000    mass and valenz                      
   RCORE  =    1.520    outmost cutoff radius                                   
   RWIGS  =    1.550; RWIGS  =    0.820    wigner-seitz radius (au A)           
   ENMAX  =  400.000; ENMIN  =  300.000 eV                                      
   ICORE  =        2    local potential                                         
   LCOR   =        T    correct aug charges                                     
   LPAW   =        T    paw PP                                                  
   EAUG   =  605.392                                                            
   DEXC   =    0.000                                                            
   RMAX   =    1.553    core radius for proj-oper                               
   RAUG   =    1.300    factor for augmentation sphere                          
   RDEP   =    1.550    radius for radial grids                                 
   RDEPT  =    1.329    core radius for aug-charge                              
                                                                                
   Atomic configuration                                                         
    4 entries                                                                   
     n  l   j            E        occ.                                          
     1  0  0.50      -514.6923   2.0000                                         
     2  0  0.50       -23.9615   2.0000                                         
     2  1  0.50        -9.0305   4.0000                                         
     3  2  1.50        -9.5241   0.0000                                         
   Description                                                                  
     l       E           TYP  RCUT    TYP  RCUT                                 
     0    -23.9615318     23  1.200                                             
     0     -9.5240782     23  1.200                                             
     1     -9.0304911     23  1.520                                             
     1      8.1634956     23  1.520                                             
     2     -9.5240782      7  1.500                                             
  local pseudopotential read in
  partial core-charges read in
  partial kinetic energy density read in
  kinetic energy density of atom read in
  atomic valenz-charges read in
  non local Contribution for L=           0  read in
    real space projection operators read in
  non local Contribution for L=           0  read in
    real space projection operators read in
  non local Contribution for L=           1  read in
    real space projection operators read in
  non local Contribution for L=           1  read in
    real space projection operators read in
    PAW grid and wavefunctions read in
 
   number of l-projection  operators is LMAX  =           4
   number of lm-projection operators is LMMAX =           8
 
 Optimization of the real space projectors (new method)

 maximal supplied QI-value         = 25.13
 optimisation between [QCUT,QGAM] = [ 12.32, 24.88] = [ 42.47,173.37] Ry 
 Optimized for a Real-space Cutoff    1.06 Angstroem

   l    n(q)    QCUT    max X(q) W(low)/X(q) W(high)/X(q)  e(spline) 
   0      8    12.315   115.676    0.34E-03    0.18E-03    0.23E-06
   0      8    12.315    87.132    0.34E-03    0.18E-03    0.22E-06
   1      7    12.315     4.429    0.45E-03    0.12E-03    0.18E-06
   1      7    12.315     2.733    0.35E-03    0.97E-04    0.15E-06
 Optimization of the real space projectors (new method)

 maximal supplied QI-value         = 16.25
 optimisation between [QCUT,QGAM] = [ 12.51, 25.03] = [ 43.85,175.40] Ry 
 Optimized for a Real-space Cutoff    1.35 Angstroem

   l    n(q)    QCUT    max X(q) W(low)/X(q) W(high)/X(q)  e(spline) 
   2      9    12.514    80.901    0.12E-03    0.34E-03    0.58E-06
   2      9    12.514    75.754    0.12E-03    0.34E-03    0.59E-06
   0     10    12.514    58.752    0.17E-03    0.81E-04    0.93E-07
   0     10    12.514    30.679    0.15E-03    0.74E-04    0.88E-07
   1     10    12.514    17.977    0.11E-03    0.79E-04    0.24E-06
   1     10    12.514    13.559    0.97E-04    0.61E-04    0.20E-06
 Optimization of the real space projectors (new method)

 maximal supplied QI-value         = 34.20
 optimisation between [QCUT,QGAM] = [ 12.31, 24.97] = [ 42.46,174.58] Ry 
 Optimized for a Real-space Cutoff    1.00 Angstroem

   l    n(q)    QCUT    max X(q) W(low)/X(q) W(high)/X(q)  e(spline) 
   0      7    12.313    19.460    0.14E-03    0.42E-03    0.16E-06
   0      7    12.313    12.209    0.12E-03    0.40E-03    0.16E-06
   1      7    12.313     4.655    0.33E-03    0.59E-03    0.89E-07
 Optimization of the real space projectors (new method)

 maximal supplied QI-value         = 25.13
 optimisation between [QCUT,QGAM] = [ 12.32, 24.88] = [ 42.47,173.37] Ry 
 Optimized for a Real-space Cutoff    1.20 Angstroem

   l    n(q)    QCUT    max X(q) W(low)/X(q) W(high)/X(q)  e(spline) 
   0      9    12.315    79.467    0.14E-03    0.22E-04    0.37E-06
   0      9    12.315    66.151    0.14E-03    0.23E-04    0.36E-06
   1      8    12.315    22.077    0.30E-03    0.54E-03    0.45E-06
   1      8    12.315    15.894    0.30E-03    0.55E-03    0.45E-06
 Optimization of the real space projectors (new method)

 maximal supplied QI-value         = 24.76
 optimisation between [QCUT,QGAM] = [ 12.38, 25.00] = [ 42.90,175.06] Ry 
 Optimized for a Real-space Cutoff    1.13 Angstroem

   l    n(q)    QCUT    max X(q) W(low)/X(q) W(high)/X(q)  e(spline) 
   0      8    12.378    20.381    0.16E-03    0.54E-05    0.27E-06
   0      8    12.378    15.268    0.17E-03    0.61E-05    0.29E-06
   1      8    12.378     5.964    0.38E-03    0.23E-03    0.28E-06
   1      8    12.378     5.382    0.33E-03    0.20E-03    0.25E-06
  PAW_PBE C 08Apr2002                   :
 energy of atom  1       EATOM= -147.1560
 kinetic energy error for atom=    0.0057 (will be added to EATOM!!)
  PAW_PBE Fe 06Sep2000                  :
 energy of atom  2       EATOM= -594.3153
 kinetic energy error for atom=    0.0017 (will be added to EATOM!!)
  PAW_PBE H 15Jun2001                   :
 energy of atom  3       EATOM=  -12.4884
 kinetic energy error for atom=    0.0004 (will be added to EATOM!!)
  PAW_PBE N 08Apr2002                   :
 energy of atom  4       EATOM= -264.5486
 kinetic energy error for atom=    0.0103 (will be added to EATOM!!)
  PAW_PBE O 08Apr2002                   :
 energy of atom  5       EATOM= -432.3788
 kinetic energy error for atom=    0.0168 (will be added to EATOM!!)
 
 
 POSCAR: FeH_exp1
  positions in direct lattice
  velocities in cartesian coordinates
 exchange correlation table for  LEXCH =        8
   RHO(1)=    0.500       N(1)  =     2000
   RHO(2)=  100.500       N(2)  =     4000
 


--------------------------------------------------------------------------------------------------------


 ion  position               nearest neighbor table
   1  0.884  0.967  0.094- 107 1.09 117 1.35  65 1.40
   2  0.933  0.983  0.414- 112 1.09 118 1.35  65 1.40
   3  0.882  0.816  0.910- 116 1.09 119 1.35  66 1.40
   4  0.616  0.467  0.600- 110 1.09 120 1.35  67 1.40
   5  0.568  0.299  0.094- 111 1.09 121 1.35  68 1.40
   6  0.067  0.798  0.090- 115 1.09 122 1.35  69 1.40
   7  0.566  0.483  0.921- 101 1.09 123 1.35  67 1.40
   8  0.618  0.316  0.414- 113 1.09 124 1.35  68 1.40
   9  0.432  0.481  0.422- 114 1.09 125 1.35  70 1.40
  10  0.116  0.814  0.411- 104 1.09 126 1.35  69 1.40
  11  0.069  0.981  0.915- 105 1.09 127 1.35  71 1.40
  12  0.434  0.298  0.595- 102 1.09 128 1.35  72 1.40
  13  0.931  0.800  0.590- 108 1.09 129 1.35  66 1.40
  14  0.118  0.965  0.594- 109 1.09 130 1.35  71 1.40
  15  0.384  0.314  0.915- 106 1.09 131 1.35  72 1.40
  16  0.383  0.465  0.103- 103 1.09 132 1.35  70 1.40
  17  0.805  0.036  0.447- 141 1.23 133 1.42  33 1.48
  18  0.851  0.080  0.049- 142 1.23 133 1.42  34 1.48
  19  0.847  0.704  0.958- 143 1.23 134 1.42  35 1.48
  20  0.648  0.580  0.556- 144 1.23 135 1.42  36 1.48
  21  0.651  0.203  0.458- 145 1.23 136 1.42  37 1.48
  22  0.194  0.744  0.060- 146 1.23 137 1.42  38 1.48
  23  0.693  0.537  0.953- 147 1.23 135 1.42  39 1.48
  24  0.697  0.246  0.061- 148 1.23 136 1.42  40 1.48
  25  0.304  0.534  0.454- 149 1.23 138 1.42  41 1.48
  26  0.149  0.701  0.457- 150 1.23 137 1.42  42 1.48
  27  0.153  0.078  0.549- 151 1.23 139 1.42  43 1.48
  28  0.352  0.201  0.957- 152 1.23 140 1.42  44 1.48
  29  0.802  0.747  0.561- 153 1.23 134 1.42  45 1.48
  30  0.198  0.034  0.946- 154 1.23 139 1.42  46 1.48
  31  0.307  0.244  0.561- 155 1.23 140 1.42  47 1.48
  32  0.349  0.578  0.057- 156 1.23 138 1.42  48 1.48
  33  0.766  0.079  0.443-  49 1.39  73 1.42  17 1.48
  34  0.812  0.122  0.058-  50 1.39  73 1.42  18 1.48
  35  0.808  0.661  0.951-  51 1.39  74 1.42  19 1.48
  36  0.687  0.623  0.564-  52 1.39  75 1.42  20 1.48
  37  0.690  0.160  0.449-  53 1.39  76 1.42  21 1.48
  38  0.234  0.702  0.065-  54 1.39  77 1.42  22 1.48
  39  0.733  0.580  0.949-  55 1.39  75 1.42  23 1.48
  40  0.736  0.204  0.063-  56 1.39  76 1.42  24 1.48
  41  0.264  0.577  0.449-  57 1.39  78 1.42  25 1.48
  42  0.188  0.659  0.450-  58 1.39  77 1.42  26 1.48
  43  0.192  0.120  0.558-  59 1.39  79 1.42  27 1.48
  44  0.313  0.158  0.948-  60 1.39  80 1.42  28 1.48
  45  0.762  0.704  0.566-  61 1.39  74 1.42  29 1.48
  46  0.238  0.077  0.943-  62 1.39  79 1.42  30 1.48
  47  0.267  0.202  0.563-  63 1.39  80 1.42  31 1.48
  48  0.310  0.620  0.064-  64 1.39  78 1.42  32 1.48
  49  0.724  0.078  0.630-  88 1.09  33 1.39  53 1.40
  50  0.815  0.164  0.874-  99 1.09  34 1.39  56 1.40
  51  0.812  0.619  0.136-  93 1.09  35 1.39  55 1.40
  52  0.683  0.665  0.379-  90 1.09  36 1.39  61 1.40
  53  0.687  0.118  0.633-  98 1.09  37 1.39  49 1.40
  54  0.276  0.702  0.879-  96 1.09  38 1.39  64 1.40
  55  0.775  0.579  0.135-  86 1.09  39 1.39  51 1.40
  56  0.778  0.205  0.877-  87 1.09  40 1.39  50 1.40
  57  0.222  0.576  0.635-  95 1.09  41 1.39  58 1.40
  58  0.184  0.617  0.636-  91 1.09  42 1.39  57 1.40
  59  0.188  0.162  0.374-  92 1.09  43 1.39  63 1.40
  60  0.317  0.116  0.132-  85 1.09  44 1.39  62 1.40
  61  0.720  0.705  0.380-  89 1.09  45 1.39  52 1.40
  62  0.279  0.076  0.129- 100 1.09  46 1.39  60 1.40
  63  0.225  0.203  0.376-  94 1.09  47 1.39  59 1.40
  64  0.314  0.662  0.878-  97 1.09  48 1.39  54 1.40
  65  0.886  0.999  0.252-   1 1.40   2 1.40 133 1.42
  66  0.883  0.784  0.753-   3 1.40  13 1.40 134 1.42
  67  0.614  0.499  0.758-   7 1.40   4 1.40 135 1.42
  68  0.616  0.284  0.255-   5 1.40   8 1.40 136 1.42
  69  0.114  0.782  0.253-   6 1.40  10 1.40 137 1.42
  70  0.384  0.497  0.261-   9 1.40  16 1.40 138 1.42
  71  0.117  0.997  0.752-  11 1.40  14 1.40 139 1.42
  72  0.386  0.282  0.756-  12 1.40  15 1.40 140 1.42
  73  0.770  0.121  0.252-  33 1.42  34 1.42  76 1.43
  74  0.767  0.663  0.758-  45 1.42  35 1.42  75 1.43
  75  0.728  0.621  0.757-  39 1.42  36 1.42  74 1.43
  76  0.732  0.162  0.255-  40 1.42  37 1.42  73 1.43
  77  0.230  0.660  0.257-  38 1.42  42 1.42  78 1.43
  78  0.268  0.619  0.257-  41 1.42  48 1.42  77 1.43
  79  0.233  0.118  0.752-  46 1.42  43 1.42  80 1.43
  80  0.271  0.160  0.754-  47 1.42  44 1.42  79 1.43
  81  0.981  0.891  0.002- 119 2.00 117 2.00 127 2.01 122 2.02  82 2.95  82 2.96
  82  0.019  0.890  0.502- 130 2.00 126 2.00 129 2.02 118 2.02  81 2.95  81 2.96
  83  0.520  0.390  0.508- 124 2.00 120 2.00 128 2.01 125 2.01  84 2.96  84 2.96
  84  0.480  0.390  0.008- 132 2.00 131 2.00 121 2.01 123 2.02  83 2.96  83 2.96
  85  0.349  0.116  0.278-  60 1.09
  86  0.777  0.546  0.279-  55 1.09
  87  0.781  0.238  0.733-  56 1.09
  88  0.721  0.045  0.774-  49 1.09
  89  0.718  0.738  0.236-  61 1.09
  90  0.650  0.665  0.233-  52 1.09
  91  0.152  0.617  0.781-  58 1.09
  92  0.156  0.162  0.227-  59 1.09
  93  0.844  0.619  0.282-  51 1.09
  94  0.223  0.236  0.233-  63 1.09
  95  0.219  0.544  0.780-  57 1.09
  96  0.279  0.735  0.734-  54 1.09
  97  0.346  0.662  0.732-  64 1.09
  98  0.654  0.118  0.779-  53 1.09
  99  0.848  0.164  0.727-  50 1.09
 100  0.282  0.043  0.273-  62 1.09
 101  0.549  0.497  0.071-   7 1.09
 102  0.451  0.284  0.445-  12 1.09
 103  0.353  0.465  0.949-  16 1.09
 104  0.145  0.814  0.567-  10 1.09
 105  0.053  0.996  0.066-  11 1.09
 106  0.355  0.313  0.069-  15 1.09
 107  0.855  0.967  0.938-   1 1.09
 108  0.947  0.785  0.439-  13 1.09
 109  0.147  0.965  0.439-  14 1.09
 110  0.645  0.468  0.446-   4 1.09
 111  0.552  0.285  0.943-   5 1.09
 112  0.950  0.997  0.565-   2 1.09
 113  0.647  0.315  0.568-   8 1.09
 114  0.448  0.496  0.573-   9 1.09
 115  0.051  0.784  0.939-   6 1.09
 116  0.853  0.816  0.065-   3 1.09
 117  0.929  0.933  0.160-   1 1.35 118 1.37  81 2.00
 118  0.959  0.943  0.356-   2 1.35 117 1.37  82 2.02
 119  0.927  0.849  0.843-   3 1.35 129 1.37  81 2.00
 120  0.571  0.433  0.667-   4 1.35 123 1.37  83 2.00
 121  0.543  0.339  0.152-   5 1.35 124 1.37  84 2.01
 122  0.041  0.838  0.148-   6 1.35 126 1.37  81 2.02
 123  0.541  0.443  0.862-   7 1.35 120 1.37  84 2.02
 124  0.573  0.349  0.348-   8 1.35 121 1.37  83 2.00
 125  0.458  0.442  0.364-   9 1.35 132 1.37  83 2.01
 126  0.071  0.848  0.345-  10 1.35 122 1.37  82 2.00
 127  0.043  0.942  0.857-  11 1.35 130 1.37  81 2.01
 128  0.459  0.338  0.654-  12 1.35 131 1.37  83 2.01
 129  0.957  0.839  0.648-  13 1.35 119 1.37  82 2.02
 130  0.073  0.932  0.661-  14 1.35 127 1.37  82 2.00
 131  0.429  0.347  0.850-  15 1.35 128 1.37  84 2.00
 132  0.427  0.432  0.169-  16 1.35 125 1.37  84 2.00
 133  0.846  0.039  0.250-  17 1.42  18 1.42  65 1.42
 134  0.843  0.744  0.757-  29 1.42  19 1.42  66 1.42
 135  0.652  0.540  0.757-  23 1.42  20 1.42  67 1.42
 136  0.656  0.243  0.257-  24 1.42  21 1.42  68 1.42
 137  0.153  0.741  0.256-  22 1.42  26 1.42  69 1.42
 138  0.345  0.538  0.258-  25 1.42  32 1.42  70 1.42
 139  0.157  0.037  0.750-  30 1.42  27 1.42  71 1.42
 140  0.347  0.241  0.757-  31 1.42  28 1.42  72 1.42
 141  0.803  0.999  0.609-  17 1.23
 142  0.885  0.078  0.880-  18 1.23
 143  0.882  0.705  0.126-  19 1.23
 144  0.613  0.579  0.388-  20 1.23
 145  0.617  0.204  0.627-  21 1.23
 146  0.196  0.782  0.897-  22 1.23
 147  0.696  0.499  0.115-  23 1.23
 148  0.699  0.284  0.899-  24 1.23
 149  0.302  0.497  0.618-  25 1.23
 150  0.114  0.703  0.625-  26 1.23
 151  0.118  0.076  0.380-  27 1.23
 152  0.387  0.202  0.126-  28 1.23
 153  0.800  0.784  0.398-  29 1.23
 154  0.199  0.997  0.109-  30 1.23
 155  0.304  0.282  0.400-  31 1.23
 156  0.384  0.576  0.889-  32 1.23
 

IMPORTANT INFORMATION: All symmetrisations will be switched off!
NOSYMM: (Re-)initialisation of all symmetry stuff for point group C_1.


----------------------------------------------------------------------------------------

                                     Primitive cell                                     

  volume of cell :    3387.1121

  direct lattice vectors                    reciprocal lattice vectors
    21.846392750 -0.001496212  0.008006595     0.045774153  0.000004797 -0.000014338
    -0.001907466 27.828814243  3.220958836     0.000003900  0.036378680 -0.003842186
     0.001704289  0.595700714  5.640229978    -0.000067206 -0.020774733  0.179491908

  length of vectors
    21.846394268 28.014594083  5.671600872     0.045774155  0.036581017  0.180690174

  position of ions in fractional coordinates (direct lattice)
     0.884154927  0.966752719  0.093534280
     0.933250202  0.982572855  0.414138458
     0.882275090  0.816232477  0.910315910
     0.615544931  0.467039153  0.600446731
     0.568429433  0.299313007  0.093960742
     0.066759675  0.798306618  0.089976911
     0.565827211  0.482559111  0.920608994
     0.617637268  0.315508589  0.413526113
     0.431941242  0.481185845  0.422279459
     0.115707473  0.813977592  0.411247300
     0.069199542  0.981383756  0.915043125
     0.434276480  0.298019702  0.595196843
     0.930853314  0.799640164  0.590009340
     0.117815178  0.965005980  0.594390603
     0.384388521  0.313668248  0.914685653
     0.382620143  0.464956855  0.103055261
     0.805495439  0.035947062  0.446546772
     0.850692962  0.079583723  0.049384962
     0.847476404  0.703743128  0.957887195
     0.647614338  0.580105154  0.556247302
     0.651352745  0.202758369  0.457529275
     0.194375313  0.744468101  0.059797362
     0.693252951  0.536679601  0.952606085
     0.696613528  0.246465559  0.060646799
     0.303819406  0.534430577  0.454450852
     0.148828716  0.701201785  0.456855516
     0.152573183  0.077570844  0.549095813
     0.351967362  0.200624295  0.956923963
     0.802124533  0.747103680  0.560793063
     0.197614940  0.033885255  0.946240425
     0.306547604  0.244446857  0.560887664
     0.349185264  0.577670045  0.056871404
     0.765766807  0.078735699  0.443433562
     0.811538417  0.122243644  0.058137480
     0.808094222  0.661117822  0.951169248
     0.686682392  0.622871672  0.563920793
     0.690483783  0.160103352  0.448699341
     0.234193733  0.701653490  0.064705258
     0.732722417  0.579647802  0.948842302
     0.736255191  0.203640698  0.063482776
     0.263916552  0.577210744  0.449279095
     0.188174575  0.658538768  0.450197843
     0.191844516  0.120165280  0.557646103
     0.312922152  0.157935015  0.947796596
     0.762146076  0.704343533  0.565939753
     0.237563349  0.076583510  0.942644969
     0.267066662  0.201551343  0.563202203
     0.309860612  0.620315481  0.063570708
     0.723973379  0.077729667  0.630183020
     0.815414460  0.164138349  0.873876561
     0.812001102  0.619380523  0.136290659
     0.682651429  0.664658378  0.379159393
     0.686554175  0.118204658  0.632872114
     0.276153071  0.702447610  0.878712053
     0.774564416  0.578840053  0.134998804
     0.777993493  0.204620783  0.876607729
     0.221911840  0.576396716  0.635094315
     0.184241022  0.616840592  0.635572457
     0.187949973  0.162084099  0.373572972
     0.316877195  0.115995340  0.131683954
     0.720162047  0.705177835  0.380182594
     0.279397729  0.075538473  0.129097216
     0.225326893  0.202581593  0.376482721
     0.313745142  0.661976233  0.878002694
     0.885532768  0.998709342  0.251720156
     0.882917856  0.784172417  0.752618646
     0.613551342  0.499013789  0.758497245
     0.616416860  0.283529795  0.255475328
     0.114313133  0.782040538  0.252959554
     0.383940545  0.496983548  0.260869423
     0.117095707  0.996984902  0.752499518
     0.386314498  0.281744804  0.756380786
     0.770122008  0.120587449  0.252190111
     0.766529274  0.662627387  0.757954849
     0.728233095  0.621398418  0.757138737
     0.731889703  0.161771355  0.254618644
     0.229831195  0.660011214  0.257103815
     0.268261564  0.618846889  0.256820091
     0.233263916  0.118454231  0.751520222
     0.271485853  0.159637349  0.753977435
     0.980933725  0.890652527  0.002297298
     0.019292910  0.890374109  0.502056979
     0.519769804  0.390352311  0.508207903
     0.480475922  0.390080034  0.008359681
     0.349306908  0.115696687  0.277947004
     0.777209935  0.546048706  0.279236220
     0.780533460  0.237511855  0.732869017
     0.721399870  0.044836521  0.773901534
     0.717549967  0.737948248  0.235809607
     0.650150098  0.664780324  0.233334667
     0.151644763  0.616710675  0.781242778
     0.155567705  0.162360757  0.227177181
     0.844463927  0.619269831  0.282223178
     0.222724101  0.235520652  0.233086755
     0.219369248  0.543690532  0.779841720
     0.278720669  0.735165954  0.734008418
     0.346258090  0.662045275  0.732104123
     0.654167813  0.117959079  0.779368914
     0.847772346  0.164410835  0.727263215
     0.281916572  0.042640196  0.272764622
     0.549123449  0.496966846  0.071455735
     0.451029025  0.283582433  0.444500980
     0.353177525  0.465060244  0.948530403
     0.144959316  0.813630107  0.566584202
     0.053269185  0.996075786  0.066117133
     0.354768103  0.313288747  0.069129217
     0.854843547  0.967022807  0.938453062
     0.946801374  0.784839640  0.439266332
     0.147048790  0.964946698  0.439287833
     0.645037455  0.467507500  0.445521074
     0.552118064  0.284670839  0.943323404
     0.949558927  0.997069564  0.565227376
     0.647036416  0.315422670  0.568162329
     0.448348639  0.495858841  0.572662152
     0.050515827  0.783868092  0.938644453
     0.853091890  0.816364587  0.065455766
     0.928607148  0.933191157  0.159886470
     0.958789303  0.942890140  0.355994041
     0.927331070  0.849254224  0.843413017
     0.571427530  0.433153018  0.666613607
     0.542583073  0.338840102  0.152468399
     0.041305810  0.838032398  0.148041323
     0.540861528  0.442677176  0.862395384
     0.572838110  0.348795034  0.347853957
     0.457691930  0.441604182  0.363921095
     0.071399607  0.847645809  0.344512410
     0.042914241  0.941978480  0.857025469
     0.459425602  0.337765517  0.654117779
     0.957196661  0.839074239  0.647547931
     0.072791416  0.931923375  0.660895488
     0.428761217  0.347366789  0.849509111
     0.427371887  0.431631041  0.168703192
     0.846351910  0.039341291  0.249773449
     0.843230040  0.743770815  0.756505848
     0.652306133  0.539891104  0.756517748
     0.655759228  0.243018390  0.257384628
     0.153365820  0.741303208  0.255887608
     0.344699435  0.537600424  0.257991631
     0.156747928  0.037363238  0.749675923
     0.347411507  0.240995766  0.757386563
     0.803493255  0.998749851  0.608759248
     0.885372440  0.078284975  0.879971738
     0.882345257  0.705160817  0.126373361
     0.612795545  0.578667229  0.387620007
     0.616621880  0.204040242  0.626804196
     0.196463579  0.781510754  0.896708410
     0.695628192  0.499451332  0.114517427
     0.698670185  0.283726809  0.898829485
     0.301933497  0.497447656  0.617966607
     0.113856854  0.702610618  0.625225505
     0.117851245  0.076320797  0.379921434
     0.386724468  0.201877632  0.125978579
     0.800183754  0.784174906  0.397844567
     0.199367893  0.996727134  0.108739771
     0.304312277  0.281794258  0.399640765
     0.384154100  0.576236030  0.888530930

  ion indices of the primitive-cell ions
   primitive index   ion index
                 1           1
                 2           2
                 3           3
                 4           4
                 5           5
                 6           6
                 7           7
                 8           8
                 9           9
                10          10
                11          11
                12          12
                13          13
                14          14
                15          15
                16          16
                17          17
                18          18
                19          19
                20          20
                21          21
                22          22
                23          23
                24          24
                25          25
                26          26
                27          27
                28          28
                29          29
                30          30
                31          31
                32          32
                33          33
                34          34
                35          35
                36          36
                37          37
                38          38
                39          39
                40          40
                41          41
                42          42
                43          43
                44          44
                45          45
                46          46
                47          47
                48          48
                49          49
                50          50
                51          51
                52          52
                53          53
                54          54
                55          55
                56          56
                57          57
                58          58
                59          59
                60          60
                61          61
                62          62
                63          63
                64          64
                65          65
                66          66
                67          67
                68          68
                69          69
                70          70
                71          71
                72          72
                73          73
                74          74
                75          75
                76          76
                77          77
                78          78
                79          79
                80          80
                81          81
                82          82
                83          83
                84          84
                85          85
                86          86
                87          87
                88          88
                89          89
                90          90
                91          91
                92          92
                93          93
                94          94
                95          95
                96          96
                97          97
                98          98
                99          99
               100         100
               101         101
               102         102
               103         103
               104         104
               105         105
               106         106
               107         107
               108         108
               109         109
               110         110
               111         111
               112         112
               113         113
               114         114
               115         115
               116         116
               117         117
               118         118
               119         119
               120         120
               121         121
               122         122
               123         123
               124         124
               125         125
               126         126
               127         127
               128         128
               129         129
               130         130
               131         131
               132         132
               133         133
               134         134
               135         135
               136         136
               137         137
               138         138
               139         139
               140         140
               141         141
               142         142
               143         143
               144         144
               145         145
               146         146
               147         147
               148         148
               149         149
               150         150
               151         151
               152         152
               153         153
               154         154
               155         155
               156         156

----------------------------------------------------------------------------------------

 
 

Automatic generation of k-mesh.
 generate k-points for:    1    1    4
Space group operators:
 irot       det(A)        alpha          n_x          n_y          n_z        tau_x        tau_y        tau_z
    1     1.000000     0.000000     1.000000     0.000000     0.000000     0.000000     0.000000     0.000000
 
 Subroutine IBZKPT returns following result:
 ===========================================
 
 Found      3 irreducible k-points:
 
 Following reciprocal coordinates:
            Coordinates               Weight
  0.000000  0.000000  0.000000      1.000000
 -0.000000 -0.000000  0.250000      2.000000
 -0.000000 -0.000000  0.500000      1.000000
 
 Following cartesian coordinates:
            Coordinates               Weight
  0.000000  0.000000  0.000000      1.000000
 -0.000017 -0.005194  0.044873      2.000000
 -0.000034 -0.010387  0.089746      1.000000
 


--------------------------------------------------------------------------------------------------------




 Dimension of arrays:
   k-points           NKPTS =      3   k-points in BZ     NKDIM =      3   number of bands    NBANDS=    384
   number of dos      NEDOS =    301   number of ions     NIONS =    156
   non local maximal  LDIM  =      6   non local SUM 2l+1 LMDIM =     18
   total plane-waves  NPLWV = 846720
   max r-space proj   IRMAX =   2603   max aug-charges    IRDMAX=   9103
   dimension x,y,z NGX =   140 NGY =  168 NGZ =   36
   dimension x,y,z NGXF=   280 NGYF=  336 NGZF=   72
   support grid    NGXF=   280 NGYF=  336 NGZF=   72
   ions per type =              80   4  32  24  16
   NGX,Y,Z   is equivalent  to a cutoff of  10.65,  9.97, 10.55 a.u.
   NGXF,Y,Z  is equivalent  to a cutoff of  21.31, 19.94, 21.10 a.u.

 SYSTEM =  flex_MOF                                
 POSCAR =  FeH_exp1                                

 Startparameter for this run:
   NWRITE =      2    write-flag & timer
   PREC   = normal    normal or accurate (medium, high low for compatibility)
   ISTART =      0    job   : 0-new  1-cont  2-samecut
   ICHARG =      2    charge: 1-file 2-atom 10-const
   ISPIN  =      2    spin polarized calculation?
   LNONCOLLINEAR =      F non collinear calculations
   LSORBIT =      F    spin-orbit coupling
   INIWAV =      1    electr: 0-lowe 1-rand  2-diag
   LASPH  =      F    aspherical Exc in radial PAW
   METAGGA=      F    non-selfconsistent MetaGGA calc.

 Electronic Relaxation 1
   ENCUT  =  600.0 eV  44.10 Ry    6.64 a.u.  43.63 55.95 11.33*2*pi/ulx,y,z
   ENINI  =  600.0     initial cutoff
   ENAUG  =  644.9 eV  augmentation charge cutoff
   NELM   =    300;   NELMIN=  3; NELMDL= -8     # of ELM steps 
   EDIFF  = 0.1E-05   stopping-criterion for ELM
   LREAL  =      T    real-space projection
   NLSPLINE    = F    spline interpolate recip. space projectors
   LCOMPAT=      F    compatible to vasp.4.4
   GGA_COMPAT  = T    GGA compatible to vasp.4.4-vasp.4.6
   LMAXPAW     = -100 max onsite density
   LMAXMIX     =    2 max onsite mixed and CHGCAR
   VOSKOWN=      0    Vosko Wilk Nusair interpolation
   ROPT   =   -0.00050  -0.00050  -0.00050  -0.00050
   ROPT   =   -0.00050
 Ionic relaxation
   EDIFFG = -.1E-01   stopping-criterion for IOM
   NSW    =   1000    number of steps for IOM
   NBLOCK =      1;   KBLOCK =   1000    inner block; outer block 
   IBRION =      2    ionic relax: 0-MD 1-quasi-New 2-CG
   NFREE  =      1    steps in history (QN), initial steepest desc. (CG)
   ISIF   =      4    stress and relaxation
   IWAVPR =     11    prediction:  0-non 1-charg 2-wave 3-comb
   ISYM   =      0    0-nonsym 1-usesym 2-fastsym
   LCORR  =      T    Harris-Foulkes like correction to forces

   POTIM  = 0.5000    time-step for ionic-motion
   TEIN   =    0.0    initial temperature
   TEBEG  =    0.0;   TEEND  =   0.0 temperature during run
   SMASS  =  -3.00    Nose mass-parameter (am)
   estimated Nose-frequenzy (Omega)   =  0.10E-29 period in steps = 0.13E+47 mass=  -0.109E-25a.u.
   SCALEE = 1.0000    scale energy and forces
   NPACO  =    256;   APACO  = 16.0  distance and # of slots for P.C.
   PSTRESS=    0.0 pullay stress

  Mass of Ions in am
   POMASS =  12.01 55.85  1.00 14.00 16.00
  Ionic Valenz
   ZVAL   =   4.00  8.00  1.00  5.00  6.00
  Atomic Wigner-Seitz radii
   RWIGS  =  -1.00 -1.00 -1.00 -1.00 -1.00
  virtual crystal weights 
   VCA    =   1.00  1.00  1.00  1.00  1.00
   NELECT =     600.0000    total number of electrons
   NUPDOWN=       0.0000    fix difference up-down

 DOS related values:
   EMIN   =  10.00;   EMAX   =-10.00  energy-range for DOS
   EFERMI =   0.00
   ISMEAR =     0;   SIGMA  =   0.05  broadening in eV -4-tet -1-fermi 0-gaus

 Electronic relaxation 2 (details)
   IALGO  =     38    algorithm
   LDIAG  =      T    sub-space diagonalisation (order eigenvalues)
   LSUBROT=      F    optimize rotation matrix (better conditioning)
   TURBO    =      0    0=normal 1=particle mesh
   IRESTART =      0    0=no restart 2=restart with 2 vectors
   NREBOOT  =      0    no. of reboots
   NMIN     =      0    reboot dimension
   EREF     =   0.00    reference energy to select bands
   IMIX   =      4    mixing-type and parameters
     AMIX     =   0.40;   BMIX     =  1.00
     AMIX_MAG =   1.60;   BMIX_MAG =  1.00
     AMIN     =   0.10
     WC   =   100.;   INIMIX=   1;  MIXPRE=   1;  MAXMIX= -45

 Intra band minimization:
   WEIMIN = 0.0010     energy-eigenvalue tresh-hold
   EBREAK =  0.65E-09  absolut break condition
   DEPER  =   0.30     relativ break condition  

   TIME   =   0.40     timestep for ELM

  volume/ion in A,a.u.               =      21.71       146.52
  Fermi-wavevector in a.u.,A,eV,Ry     =   0.919423  1.737458 11.501532  0.845339
  Thomas-Fermi vector in A             =   2.044615
 
 Write flags
   LWAVE        =      T    write WAVECAR
   LDOWNSAMPLE  =      F    k-point downsampling of WAVECAR
   LCHARG       =      T    write CHGCAR
   LVTOT        =      F    write LOCPOT, total local potential
   LVHAR        =      F    write LOCPOT, Hartree potential only
   LELF         =      F    write electronic localiz. function (ELF)
   LORBIT       =     11    0 simple, 1 ext, 2 COOP (PROOUT), +10 PAW based schemes


 Dipole corrections
   LMONO  =      F    monopole corrections only (constant potential shift)
   LDIPOL =      F    correct potential (dipole corrections)
   IDIPOL =      0    1-x, 2-y, 3-z, 4-all directions 
   EPSILON=  1.0000000 bulk dielectric constant

 Exchange correlation treatment:
   GGA     =    PE    GGA type
   LEXCH   =     8    internal setting for exchange type
   VOSKOWN=      0    Vosko Wilk Nusair interpolation
   LHFCALC =     F    Hartree Fock is set to
   LHFONE  =     F    Hartree Fock one center treatment
   AEXX    =    0.0000 exact exchange contribution

 Linear response parameters
   LEPSILON=     F    determine dielectric tensor
   LRPA    =     F    only Hartree local field effects (RPA)
   LNABLA  =     F    use nabla operator in PAW spheres
   LVEL    =     F    velocity operator in full k-point grid
   LINTERFAST=   F  fast interpolation
   KINTER  =     0    interpolate to denser k-point grid
   CSHIFT  =0.1000    complex shift for real part using Kramers Kronig
   OMEGAMAX=  -1.0    maximum frequency
   DEG_THRESHOLD= 0.2000000E-02 threshold for treating states as degnerate
   RTIME   =   -0.100 relaxation time in fs
  (WPLASMAI=    0.000 imaginary part of plasma frequency in eV, 0.658/RTIME)
   DFIELD  = 0.0000000 0.0000000 0.0000000 field for delta impulse in time
 
 Orbital magnetization related:
   ORBITALMAG=     F  switch on orbital magnetization
   LCHIMAG   =     F  perturbation theory with respect to B field
   DQ        =  0.001000  dq finite difference perturbation B field
   LLRAUG    =     F  two centre corrections for induced B field



--------------------------------------------------------------------------------------------------------


 conjugate gradient relaxation of ions
 charge density and potential will be updated during run
 spin polarized calculation
 Variant of blocked Davidson
 Davidson routine will perform the subspace rotation
 perform sub-space diagonalisation
    after iterative eigenvector-optimisation
 modified Broyden-mixing scheme, WC =      100.0
 initial mixing is a Kerker type mixing with AMIX =  0.4000 and BMIX =      1.0000
 Hartree-type preconditioning will be used
 using additional bands           84
 real space projection scheme for non local part
 use partial core corrections
 calculate Harris-corrections to forces 
   (improved forces if not selfconsistent)
 use gradient corrections 
 use of overlap-Matrix (Vanderbilt PP)
 Gauss-broadening in eV      SIGMA  =   0.05


--------------------------------------------------------------------------------------------------------


  energy-cutoff  :      600.00
  volume of cell :     3387.11
      direct lattice vectors                 reciprocal lattice vectors
    21.846392750 -0.001496212  0.008006595     0.045774153  0.000004797 -0.000014338
    -0.001907466 27.828814243  3.220958836     0.000003900  0.036378680 -0.003842186
     0.001704289  0.595700714  5.640229978    -0.000067206 -0.020774733  0.179491908

  length of vectors
    21.846394268 28.014594083  5.671600872     0.045774155  0.036581017  0.180690174


 
 k-points in units of 2pi/SCALE and weight: read from INCAR                         
   0.00000000  0.00000000  0.00000000       0.250
  -0.00001680 -0.00519368  0.04487298       0.500
  -0.00003360 -0.01038737  0.08974595       0.250
 
 k-points in reciprocal lattice and weights: read from INCAR                         
   0.00000000  0.00000000  0.00000000       0.250
  -0.00000000 -0.00000000  0.25000000       0.500
  -0.00000000 -0.00000000  0.50000000       0.250
 
 position of ions in fractional coordinates (direct lattice) 
   0.88415493  0.96675272  0.09353428
   0.93325020  0.98257286  0.41413846
   0.88227509  0.81623248  0.91031591
   0.61554493  0.46703915  0.60044673
   0.56842943  0.29931301  0.09396074
   0.06675968  0.79830662  0.08997691
   0.56582721  0.48255911  0.92060899
   0.61763727  0.31550859  0.41352611
   0.43194124  0.48118584  0.42227946
   0.11570747  0.81397759  0.41124730
   0.06919954  0.98138376  0.91504312
   0.43427648  0.29801970  0.59519684
   0.93085331  0.79964016  0.59000934
   0.11781518  0.96500598  0.59439060
   0.38438852  0.31366825  0.91468565
   0.38262014  0.46495685  0.10305526
   0.80549544  0.03594706  0.44654677
   0.85069296  0.07958372  0.04938496
   0.84747640  0.70374313  0.95788720
   0.64761434  0.58010515  0.55624730
   0.65135274  0.20275837  0.45752928
   0.19437531  0.74446810  0.05979736
   0.69325295  0.53667960  0.95260608
   0.69661353  0.24646556  0.06064680
   0.30381941  0.53443058  0.45445085
   0.14882872  0.70120179  0.45685552
   0.15257318  0.07757084  0.54909581
   0.35196736  0.20062430  0.95692396
   0.80212453  0.74710368  0.56079306
   0.19761494  0.03388525  0.94624043
   0.30654760  0.24444686  0.56088766
   0.34918526  0.57767004  0.05687140
   0.76576681  0.07873570  0.44343356
   0.81153842  0.12224364  0.05813748
   0.80809422  0.66111782  0.95116925
   0.68668239  0.62287167  0.56392079
   0.69048378  0.16010335  0.44869934
   0.23419373  0.70165349  0.06470526
   0.73272242  0.57964780  0.94884230
   0.73625519  0.20364070  0.06348278
   0.26391655  0.57721074  0.44927909
   0.18817457  0.65853877  0.45019784
   0.19184452  0.12016528  0.55764610
   0.31292215  0.15793501  0.94779660
   0.76214608  0.70434353  0.56593975
   0.23756335  0.07658351  0.94264497
   0.26706666  0.20155134  0.56320220
   0.30986061  0.62031548  0.06357071
   0.72397338  0.07772967  0.63018302
   0.81541446  0.16413835  0.87387656
   0.81200110  0.61938052  0.13629066
   0.68265143  0.66465838  0.37915939
   0.68655417  0.11820466  0.63287211
   0.27615307  0.70244761  0.87871205
   0.77456442  0.57884005  0.13499880
   0.77799349  0.20462078  0.87660773
   0.22191184  0.57639672  0.63509431
   0.18424102  0.61684059  0.63557246
   0.18794997  0.16208410  0.37357297
   0.31687719  0.11599534  0.13168395
   0.72016205  0.70517784  0.38018259
   0.27939773  0.07553847  0.12909722
   0.22532689  0.20258159  0.37648272
   0.31374514  0.66197623  0.87800269
   0.88553277  0.99870934  0.25172016
   0.88291786  0.78417242  0.75261865
   0.61355134  0.49901379  0.75849725
   0.61641686  0.28352979  0.25547533
   0.11431313  0.78204054  0.25295955
   0.38394054  0.49698355  0.26086942
   0.11709571  0.99698490  0.75249952
   0.38631450  0.28174480  0.75638079
   0.77012201  0.12058745  0.25219011
   0.76652927  0.66262739  0.75795485
   0.72823309  0.62139842  0.75713874
   0.73188970  0.16177135  0.25461864
   0.22983120  0.66001121  0.25710382
   0.26826156  0.61884689  0.25682009
   0.23326392  0.11845423  0.75152022
   0.27148585  0.15963735  0.75397744
   0.98093372  0.89065253  0.00229730
   0.01929291  0.89037411  0.50205698
   0.51976980  0.39035231  0.50820790
   0.48047592  0.39008003  0.00835968
   0.34930691  0.11569669  0.27794700
   0.77720993  0.54604871  0.27923622
   0.78053346  0.23751185  0.73286902
   0.72139987  0.04483652  0.77390153
   0.71754997  0.73794825  0.23580961
   0.65015010  0.66478032  0.23333467
   0.15164476  0.61671067  0.78124278
   0.15556771  0.16236076  0.22717718
   0.84446393  0.61926983  0.28222318
   0.22272410  0.23552065  0.23308675
   0.21936925  0.54369053  0.77984172
   0.27872067  0.73516595  0.73400842
   0.34625809  0.66204527  0.73210412
   0.65416781  0.11795908  0.77936891
   0.84777235  0.16441084  0.72726321
   0.28191657  0.04264020  0.27276462
   0.54912345  0.49696685  0.07145573
   0.45102903  0.28358243  0.44450098
   0.35317753  0.46506024  0.94853040
   0.14495932  0.81363011  0.56658420
   0.05326919  0.99607579  0.06611713
   0.35476810  0.31328875  0.06912922
   0.85484355  0.96702281  0.93845306
   0.94680137  0.78483964  0.43926633
   0.14704879  0.96494670  0.43928783
   0.64503746  0.46750750  0.44552107
   0.55211806  0.28467084  0.94332340
   0.94955893  0.99706956  0.56522738
   0.64703642  0.31542267  0.56816233
   0.44834864  0.49585884  0.57266215
   0.05051583  0.78386809  0.93864445
   0.85309189  0.81636459  0.06545577
   0.92860715  0.93319116  0.15988647
   0.95878930  0.94289014  0.35599404
   0.92733107  0.84925422  0.84341302
   0.57142753  0.43315302  0.66661361
   0.54258307  0.33884010  0.15246840
   0.04130581  0.83803240  0.14804132
   0.54086153  0.44267718  0.86239538
   0.57283811  0.34879503  0.34785396
   0.45769193  0.44160418  0.36392110
   0.07139961  0.84764581  0.34451241
   0.04291424  0.94197848  0.85702547
   0.45942560  0.33776552  0.65411778
   0.95719666  0.83907424  0.64754793
   0.07279142  0.93192337  0.66089549
   0.42876122  0.34736679  0.84950911
   0.42737189  0.43163104  0.16870319
   0.84635191  0.03934129  0.24977345
   0.84323004  0.74377082  0.75650585
   0.65230613  0.53989110  0.75651775
   0.65575923  0.24301839  0.25738463
   0.15336582  0.74130321  0.25588761
   0.34469943  0.53760042  0.25799163
   0.15674793  0.03736324  0.74967592
   0.34741151  0.24099577  0.75738656
   0.80349326  0.99874985  0.60875925
   0.88537244  0.07828497  0.87997174
   0.88234526  0.70516082  0.12637336
   0.61279555  0.57866723  0.38762001
   0.61662188  0.20404024  0.62680420
   0.19646358  0.78151075  0.89670841
   0.69562819  0.49945133  0.11451743
   0.69867019  0.28372681  0.89882949
   0.30193350  0.49744766  0.61796661
   0.11385685  0.70261062  0.62522551
   0.11785124  0.07632080  0.37992143
   0.38672447  0.20187763  0.12597858
   0.80018375  0.78417491  0.39784457
   0.19936789  0.99672713  0.10873977
   0.30431228  0.28179426  0.39964076
   0.38415410  0.57623603  0.88853093
 
 position of ions in cartesian coordinates  (Angst):
  19.31391115 26.95797740  3.64850463
  20.38698203 27.58914370  5.50813502
  19.27452264 23.25573774  7.77050631
  13.44756880 13.35391140  4.89589996
  12.41772186  8.38464806  1.49858625
   1.45708869 22.26942600  3.07933775
  12.36193201 13.97660870  6.75127983
  13.49324927  9.02564359  3.35356772
   9.43615986 13.64173739  3.93509144
   2.52693914 22.89683838  4.94224409
   1.51144792 27.85573454  8.32260439
   9.48782048  8.64744433  4.32043334
  20.33526736 22.60311381  5.91084939
   2.57300894 27.20887478  6.46168753
   8.39846316  9.27331918  6.17242760
   8.35815866 13.00001556  2.08192575
  17.59786219  1.26516714  2.64085977
  18.58450492  2.24286649  0.54168959
  18.51459253 20.15368286  7.67621712
  14.14787866 16.47402652  5.01104271
  14.23010088  5.91410095  3.23886181
   4.24508130 20.75299501  2.73672827
  15.14567607 15.50158778  7.10709089
  15.21812597  6.89392931  1.14149482
   6.63711317 15.14283138  4.28701877
   3.25081167 19.78554071  4.83650387
   3.33396154  2.48557309  3.34810075
   7.69046541  6.15264991  6.04629188
  17.52305827 21.12387420  5.57581433
   4.31872163  1.50636689  5.44773885
   6.69744900  7.13632871  3.95334308
   7.62743346 16.10922825  2.18421502
  16.72984798  2.45412910  2.76080290
  17.72905289  3.43531397  0.72814817
  17.65430377 18.96352817  7.50071668
  15.00130621 17.66868065  5.19238496
  15.08503922  4.72174384  3.05198221
   5.11506016 19.56437919  2.62682464
  16.00785313 16.69504074  7.22457712
  16.08423983  5.70379430  1.01987066
   5.76528933 16.33033157  4.39532254
   4.11044679 18.59425467  4.66185227
   4.19183182  3.67596039  3.53383571
   6.83753429  4.95927910  5.85699839
  16.64976352 19.93703571  5.46679408
   5.19136268  2.69240710  5.56530882
   5.83501860  5.94403526  3.82791683
   6.76826174 17.30004980  2.35904497
  15.81713252  2.53744172  3.81053778
  17.81504080  5.08712448  5.46407634
  17.73834582 17.31659904  2.77021119
  14.91284961 18.72149865  4.28484916
  14.99958527  3.66547062  3.95577357
   6.03310612 20.07132027  7.22090394
  16.92056441 16.18769228  2.63204591
  16.99745509  6.21538557  5.60957339
   4.84795614 16.41843126  5.44040485
   4.02490833 17.54427756  5.57306813
   4.10635644  4.73286474  2.63060853
   6.92262681  3.30598287  1.11888111
  15.73224577 19.84966052  4.42143209
   6.10390845  2.17863140  0.97368132
   4.92283501  5.86153941  2.77776020
   6.85443328 18.94457102  7.08684734
  19.34422064 27.94152169  4.64365135
  19.28835716 22.26960297  6.77779849
  13.40422445 14.33788140  5.89031423
  13.46637940  8.04156254  2.35911280
   2.49626901 21.91377803  3.94658570
   8.38721255 13.98528849  3.07520115
   2.55749957 28.19299694  7.45645521
   8.44032993  8.29062237  5.17674306
  16.82458764  3.50488327  1.81698349
  16.74592741 18.89050183  6.41547249
  15.90937129 17.74271965  6.27776600
  15.98927528  4.65248643  1.96302653
   5.02016179 18.52014252  3.57783376
   5.85980476 17.37436165  3.44395259
   5.09702999  3.74377290  4.62215073
   5.93196706  4.89125682  4.76896514
  21.42816844 24.78570456  2.88956636
   0.42063777 25.07710253  5.69972965
  11.35521684 11.16500407  4.12787976
  10.49593588 10.85972579  1.30742923
   7.63134892  3.38475221  1.94313605
  16.97866782 15.36106635  3.33997971
  17.05263651  7.04507604  4.90481512
  15.76121832  1.70768154  4.51517518
  15.67487267 20.67562305  3.71266648
  14.20256402 18.63807302  3.46249673
   3.31304616 17.62748680  6.39400279
   3.39867066  4.65340418  1.80553443
  18.44779037 17.40040215  3.59320754
   4.86566618  6.69277719  2.07504849
   4.79271876 15.59448686  6.15144787
   6.08888986 20.89562907  6.51014716
   7.56447511 18.85953185  6.26442855
  14.29231024  3.74595314  4.78099891
  18.52169349  5.00732136  4.63828009
   6.15924370  1.34869036  1.67805471
  11.99554036 13.87174267  2.00813314
   9.85357386  8.15587756  3.42410630
   7.71638441 13.50658697  6.85069727
   3.16625180 22.97965884  5.81749492
   1.16195224 27.75891434  3.58166145
   7.74992355  8.75910385  1.40183532
  18.67500270 27.46885620  8.41467614
  20.68344625 22.10141121  5.01307996
   3.21139370 27.11478646  5.58691536
  14.09160912 13.27461150  4.02382828
  12.06285278  8.48316423  6.24189458
  20.74349869 28.08254931  6.40713515
  14.13577832  9.11532550  4.22571019
   9.79483060 14.13962802  4.83067690
   1.10369312 22.37319511  7.81938190
  18.63553486 22.75617408  3.00549266
  20.28520893 26.06345846  3.91500175
  20.94489587 26.45014591  5.05257523
  20.25865626 24.13477229  7.49988104
  12.48394012 12.45038210  5.15959728
  11.85309644  9.51953198  1.95569110
   0.90103673 23.40957445  3.53458568
  11.81649874 12.83210120  6.29428372
  12.51437386  9.91291198  3.09001725
   9.99869554 12.50542402  3.47865212
   1.55879414 23.79409723  4.67393315
   0.93718519 26.72461063  7.86823825
  10.03726267  9.78858485  4.78098196
  20.91079730 23.73475373  6.36260672
   1.58957861 26.32790949  6.72987219
   9.36767115 10.17221751  5.91371380
   9.33599830 12.11163724  2.34521241
  18.49008688  1.24234537  1.54227277
  18.42140523 21.14764928  6.66927355
  14.25079548 15.47421142  6.01112386
  14.32594875  6.91525667  2.23971113
   3.34951202 20.78179224  3.83220001
   7.52985347 15.11395238  3.18948084
   3.42558319  1.48612258  4.34994509
   7.59051935  7.15728233  5.05085342
  17.55256164 28.15546021  6.65690756
  19.34354446  2.70145310  5.22248448
  19.27493132 19.69774991  2.99113337
  13.38692898 16.33361146  4.05503571
  13.47164282  6.05066312  4.19746208
   4.29205806 22.28239349  7.57642863
  15.19620918 13.96631564  2.26018642
  15.26441393  8.43016868  5.98907135
   6.59626209 14.21104982  5.09014967
   2.48708690 19.92509730  5.79040712
   2.57512649  2.35006041  2.38961399
   8.44836423  5.69248202  1.36388405
  17.48031082 22.05845685  4.77613670
   4.35375339 27.80221233  3.82533065
   6.64826911  8.07961104  3.16415003
   8.39279650 16.56468916  6.87062709
 


--------------------------------------------------------------------------------------------------------


 k-point  1 :   0.0000 0.0000 0.0000  plane waves:  113053
 k-point  2 :  -0.0000-0.0000 0.2500  plane waves:  113013
 k-point  3 :  -0.0000-0.0000 0.5000  plane waves:  113004

 maximum and minimum number of plane-waves per node :     28355    28185

 maximum number of plane-waves:    113053
 maximum index in each direction: 
   IXMAX=   43   IYMAX=   55   IZMAX=   11
   IXMIN=  -43   IYMIN=  -55   IZMIN=  -11


 real space projection operators:
  total allocation   :      12834.19 KBytes
  max/ min on nodes  :       3210.04       3205.74


 parallel 3D FFT for wavefunctions:
    minimum data exchange during FFTs selected (reduces bandwidth)
 parallel 3D FFT for charge:
    minimum data exchange during FFTs selected (reduces bandwidth)


 total amount of memory used by VASP MPI-rank0   105121. kBytes
=======================================================================

   base      :      30000. kBytes
   nonlr-proj:       7070. kBytes
   fftplans  :       8924. kBytes
   grid      :      24847. kBytes
   one-center:       1213. kBytes
   wavefun   :      33067. kBytes
 
     INWAV:  cpu time    0.0001: real time    0.0001
 Broyden mixing: mesh for mixing (old mesh)
   NGX = 87   NGY =111   NGZ = 23
  (NGX  =280   NGY  =336   NGZ  = 72)
  gives a total of 222111 points

 initial charge density was supplied:
 charge density of overlapping atoms calculated
 number of electron     600.0000000 magnetization       0.0000000
 keeping initial charge density in first step


--------------------------------------------------------------------------------------------------------


 Maximum index for non-local projection operator          628
 Maximum index for augmentation-charges          415 (set IRDMAX)


--------------------------------------------------------------------------------------------------------


 First call to EWALD:  gamma=   0.118
 Maximum number of real-space cells 2x 2x 7
 Maximum number of reciprocal cells 4x 5x 1

    FEWALD:  cpu time    0.0160: real time    0.0161


--------------------------------------- Iteration      1(   1)  ---------------------------------------


    POTLOK:  cpu time    0.3883: real time    0.4139
    SETDIJ:  cpu time    0.1428: real time    0.1430
     EDDAV:  cpu time   15.3500: real time   15.5105
       DOS:  cpu time    0.0062: real time    0.0070
    --------------------------------------------
      LOOP:  cpu time   15.8874: real time   16.0745

 eigenvalue-minimisations  :  4608
 total energy-change (2. order) : 0.5390567E+04  (-0.2757102E+05)
 number of electron     600.0000000 magnetization       0.0000000
 augmentation part      600.0000000 magnetization       0.0000000

 Free energy of the ion-electron system (eV)
  ---------------------------------------------------
  alpha Z        PSCENC =       523.31067346
  Ewald energy   TEWEN  =     39666.22274724
  -Hartree energ DENC   =    -63109.01109766
  -exchange      EXHF   =         0.00000000
  -V(xc)+E(xc)   XCENC  =      2074.29480181
  PAW double counting   =     21414.44618548   -21549.26220163
  entropy T*S    EENTRO =        -0.03995572
  eigenvalues    EBANDS =     -1444.99812160
  atomic energy  EATOM  =     27815.60422923
  Solvation  Ediel_sol  =         0.00000000
  ---------------------------------------------------
  free energy    TOTEN  =      5390.56726059 eV

  energy without entropy =     5390.60721631  energy(sigma->0) =     5390.58723845


--------------------------------------------------------------------------------------------------------




--------------------------------------- Iteration      1(   2)  ---------------------------------------


     EDDAV:  cpu time   20.0109: real time   20.0744
       DOS:  cpu time    0.0039: real time    0.0039
    --------------------------------------------
      LOOP:  cpu time   20.0147: real time   20.0783

 eigenvalue-minimisations  :  6176
 total energy-change (2. order) :-0.5741143E+04  (-0.5531015E+04)
 number of electron     600.0000000 magnetization       0.0000000
 augmentation part      600.0000000 magnetization       0.0000000

 Free energy of the ion-electron system (eV)
  ---------------------------------------------------
  alpha Z        PSCENC =       523.31067346
  Ewald energy   TEWEN  =     39666.22274724
  -Hartree energ DENC   =    -63109.01109766
  -exchange      EXHF   =         0.00000000
  -V(xc)+E(xc)   XCENC  =      2074.29480181
  PAW double counting   =     21414.44618548   -21549.26220163
  entropy T*S    EENTRO =        -0.01830417
  eigenvalues    EBANDS =     -7186.16266725
  atomic energy  EATOM  =     27815.60422923
  Solvation  Ediel_sol  =         0.00000000
  ---------------------------------------------------
  free energy    TOTEN  =      -350.57563351 eV

  energy without entropy =     -350.55732934  energy(sigma->0) =     -350.56648142


--------------------------------------------------------------------------------------------------------




--------------------------------------- Iteration      1(   3)  ---------------------------------------


     EDDAV:  cpu time   18.0790: real time   18.1378
       DOS:  cpu time    0.0066: real time    0.0066
    --------------------------------------------
      LOOP:  cpu time   18.0856: real time   18.1444

 eigenvalue-minimisations  :  5536
 total energy-change (2. order) :-0.9063546E+03  (-0.8977952E+03)
 number of electron     600.0000000 magnetization       0.0000000
 augmentation part      600.0000000 magnetization       0.0000000

 Free energy of the ion-electron system (eV)
  ---------------------------------------------------
  alpha Z        PSCENC =       523.31067346
  Ewald energy   TEWEN  =     39666.22274724
  -Hartree energ DENC   =    -63109.01109766
  -exchange      EXHF   =         0.00000000
  -V(xc)+E(xc)   XCENC  =      2074.29480181
  PAW double counting   =     21414.44618548   -21549.26220163
  entropy T*S    EENTRO =        -0.04390654
  eigenvalues    EBANDS =     -8092.49168307
  atomic energy  EATOM  =     27815.60422923
  Solvation  Ediel_sol  =         0.00000000
  ---------------------------------------------------
  free energy    TOTEN  =     -1256.93025170 eV

  energy without entropy =    -1256.88634515  energy(sigma->0) =    -1256.90829843


--------------------------------------------------------------------------------------------------------




--------------------------------------- Iteration      1(   4)  ---------------------------------------


     EDDAV:  cpu time   22.1300: real time   22.1955
       DOS:  cpu time    0.0041: real time    0.0041
    --------------------------------------------
      LOOP:  cpu time   22.1340: real time   22.1995

 eigenvalue-minimisations  :  6944
 total energy-change (2. order) :-0.3792289E+02  (-0.3763516E+02)
 number of electron     600.0000000 magnetization       0.0000000
 augmentation part      600.0000000 magnetization       0.0000000

 Free energy of the ion-electron system (eV)
  ---------------------------------------------------
  alpha Z        PSCENC =       523.31067346
  Ewald energy   TEWEN  =     39666.22274724
  -Hartree energ DENC   =    -63109.01109766
  -exchange      EXHF   =         0.00000000
  -V(xc)+E(xc)   XCENC  =      2074.29480181
  PAW double counting   =     21414.44618548   -21549.26220163
  entropy T*S    EENTRO =        -0.08966539
  eigenvalues    EBANDS =     -8130.36881626
  atomic energy  EATOM  =     27815.60422923
  Solvation  Ediel_sol  =         0.00000000
  ---------------------------------------------------
  free energy    TOTEN  =     -1294.85314373 eV

  energy without entropy =    -1294.76347834  energy(sigma->0) =    -1294.80831104


--------------------------------------------------------------------------------------------------------




--------------------------------------- Iteration      1(   5)  ---------------------------------------


     EDDAV:  cpu time   18.9868: real time   19.0465
       DOS:  cpu time    0.0038: real time    0.0038
    --------------------------------------------
      LOOP:  cpu time   18.9906: real time   19.0503

 eigenvalue-minimisations  :  6048
 total energy-change (2. order) :-0.6321121E+00  (-0.6292367E+00)
 number of electron     600.0000000 magnetization       0.0000000
 augmentation part      600.0000000 magnetization       0.0000000

 Free energy of the ion-electron system (eV)
  ---------------------------------------------------
  alpha Z        PSCENC =       523.31067346
  Ewald energy   TEWEN  =     39666.22274724
  -Hartree energ DENC   =    -63109.01109766
  -exchange      EXHF   =         0.00000000
  -V(xc)+E(xc)   XCENC  =      2074.29480181
  PAW double counting   =     21414.44618548   -21549.26220163
  entropy T*S    EENTRO =        -0.09093101
  eigenvalues    EBANDS =     -8130.99966271
  atomic energy  EATOM  =     27815.60422923
  Solvation  Ediel_sol  =         0.00000000
  ---------------------------------------------------
  free energy    TOTEN  =     -1295.48525580 eV

  energy without entropy =    -1295.39432479  energy(sigma->0) =    -1295.43979030


--------------------------------------------------------------------------------------------------------




--------------------------------------- Iteration      1(   6)  ---------------------------------------


     EDDAV:  cpu time   22.1502: real time   22.1838
       DOS:  cpu time    0.0041: real time    0.0041
    --------------------------------------------
      LOOP:  cpu time   22.1543: real time   22.1878

 eigenvalue-minimisations  :  7168
 total energy-change (2. order) :-0.3602799E-01  (-0.3600026E-01)
 number of electron     600.0000000 magnetization       0.0000000
 augmentation part      600.0000000 magnetization       0.0000000

 Free energy of the ion-electron system (eV)
  ---------------------------------------------------
  alpha Z        PSCENC =       523.31067346
  Ewald energy   TEWEN  =     39666.22274724
  -Hartree energ DENC   =    -63109.01109766
  -exchange      EXHF   =         0.00000000
  -V(xc)+E(xc)   XCENC  =      2074.29480181
  PAW double counting   =     21414.44618548   -21549.26220163
  entropy T*S    EENTRO =        -0.09100217
  eigenvalues    EBANDS =     -8131.03561954
  atomic energy  EATOM  =     27815.60422923
  Solvation  Ediel_sol  =         0.00000000
  ---------------------------------------------------
  free energy    TOTEN  =     -1295.52128380 eV

  energy without entropy =    -1295.43028163  energy(sigma->0) =    -1295.47578271


--------------------------------------------------------------------------------------------------------




--------------------------------------- Iteration      1(   7)  ---------------------------------------


     EDDAV:  cpu time   18.7897: real time   18.8184
       DOS:  cpu time    0.0039: real time    0.0039
    --------------------------------------------
      LOOP:  cpu time   18.7936: real time   18.8223

 eigenvalue-minimisations  :  6016
 total energy-change (2. order) :-0.5171497E-03  (-0.5167627E-03)
 number of electron     600.0000000 magnetization       0.0000000
 augmentation part      600.0000000 magnetization       0.0000000

 Free energy of the ion-electron system (eV)
  ---------------------------------------------------
  alpha Z        PSCENC =       523.31067346
  Ewald energy   TEWEN  =     39666.22274724
  -Hartree energ DENC   =    -63109.01109766
  -exchange      EXHF   =         0.00000000
  -V(xc)+E(xc)   XCENC  =      2074.29480181
  PAW double counting   =     21414.44618548   -21549.26220163
  entropy T*S    EENTRO =        -0.09100397
  eigenvalues    EBANDS =     -8131.03613490
  atomic energy  EATOM  =     27815.60422923
  Solvation  Ediel_sol  =         0.00000000
  ---------------------------------------------------
  free energy    TOTEN  =     -1295.52180095 eV

  energy without entropy =    -1295.43079698  energy(sigma->0) =    -1295.47629896


--------------------------------------------------------------------------------------------------------




--------------------------------------- Iteration      1(   8)  ---------------------------------------


     EDDAV:  cpu time   22.2199: real time   22.2856
       DOS:  cpu time    0.0041: real time    0.0041
    CHARGE:  cpu time    0.7682: real time    0.7756
    MIXING:  cpu time    0.0131: real time    0.0150
    --------------------------------------------
      LOOP:  cpu time   23.0054: real time   23.0803

 eigenvalue-minimisations  :  7200
 total energy-change (2. order) :-0.2546937E-04  (-0.2546588E-04)
 number of electron     600.0000072 magnetization       0.0000000
 augmentation part       35.8461916 magnetization       0.0196843

 Broyden mixing:
  rms(total) = 0.81625E+01    rms(broyden)= 0.81619E+01
  rms(prec ) = 0.86965E+01
  weight for this iteration     100.00

 Free energy of the ion-electron system (eV)
  ---------------------------------------------------
  alpha Z        PSCENC =       523.31067346
  Ewald energy   TEWEN  =     39666.22274724
  -Hartree energ DENC   =    -63109.01109766
  -exchange      EXHF   =         0.00000000
  -V(xc)+E(xc)   XCENC  =      2074.29480181
  PAW double counting   =     21414.44618548   -21549.26220163
  entropy T*S    EENTRO =        -0.09100404
  eigenvalues    EBANDS =     -8131.03616029
  atomic energy  EATOM  =     27815.60422923
  Solvation  Ediel_sol  =         0.00000000
  ---------------------------------------------------
  free energy    TOTEN  =     -1295.52182642 eV

  energy without entropy =    -1295.43082237  energy(sigma->0) =    -1295.47632439


--------------------------------------------------------------------------------------------------------




--------------------------------------- Iteration      1(   9)  ---------------------------------------


    POTLOK:  cpu time    0.3299: real time    0.3589
    SETDIJ:  cpu time    0.0609: real time    0.0609
     EDDAV:  cpu time   21.3087: real time   21.3518
       DOS:  cpu time    0.0038: real time    0.0038
    CHARGE:  cpu time    0.7424: real time    0.7490
    MIXING:  cpu time    0.0132: real time    0.0231
    --------------------------------------------
      LOOP:  cpu time   22.4589: real time   22.5475

 eigenvalue-minimisations  :  6944
 total energy-change (2. order) :-0.1307514E+03  (-0.1636259E+03)
 number of electron     600.0000079 magnetization       0.0000000
 augmentation part       54.3435670 magnetization       0.0049950

 Broyden mixing:
  rms(total) = 0.23325E+02    rms(broyden)= 0.23325E+02
  rms(prec ) = 0.23712E+02
  weight for this iteration     100.00

 eigenvalues of (default mixing * dielectric matrix)
  average eigenvalue GAMMA=   0.0840
  0.0840

 Free energy of the ion-electron system (eV)
[...]
     14.09161     13.27461      4.02383        -0.000861     -0.000949      0.000801
     12.06285      8.48316      6.24189         0.001539     -0.000001      0.001827
     20.74350     28.08255      6.40714        -0.001747     -0.000168     -0.001005
     14.13578      9.11533      4.22571         0.001547      0.000847     -0.001402
      9.79483     14.13963      4.83068        -0.002447      0.000583     -0.000301
      1.10369     22.37320      7.81938        -0.002020     -0.001867     -0.002852
     18.63553     22.75617      3.00549        -0.003589      0.000345      0.002136
     20.28521     26.06346      3.91500         0.000103     -0.003309      0.000179
     20.94490     26.45015      5.05258        -0.000239      0.000568     -0.001202
     20.25866     24.13477      7.49988         0.000376      0.004947     -0.000100
     12.48394     12.45038      5.15960         0.001601     -0.002389     -0.001881
     11.85310      9.51953      1.95569         0.003747     -0.001197      0.002879
      0.90104     23.40957      3.53459        -0.001577      0.003727      0.001126
     11.81650     12.83210      6.29428         0.004268     -0.000116     -0.002291
     12.51437      9.91291      3.09002         0.002014      0.001990      0.002594
      9.99870     12.50542      3.47865        -0.003210      0.000854     -0.000262
      1.55879     23.79410      4.67393        -0.000107      0.003296      0.002552
      0.93719     26.72461      7.86824         0.000449     -0.001276     -0.002880
     10.03726      9.78858      4.78098        -0.002403      0.002118      0.001810
     20.91080     23.73475      6.36261        -0.000377      0.002841      0.001028
      1.58958     26.32791      6.72987         0.001710     -0.003104     -0.003002
      9.36767     10.17222      5.91371        -0.000823      0.000723      0.001407
      9.33600     12.11164      2.34521        -0.002226     -0.000603     -0.000330
     18.49009      1.24235      1.54227         0.001935     -0.001399      0.000686
     18.42141     21.14765      6.66927        -0.003110     -0.002852     -0.003352
     14.25080     15.47421      6.01112        -0.003114     -0.000294      0.001173
     14.32595      6.91526      2.23971        -0.001898      0.000242     -0.003842
      3.34951     20.78179      3.83220         0.002774     -0.004566     -0.000440
      7.52985     15.11395      3.18948        -0.000830     -0.005704      0.002115
      3.42558      1.48612      4.34995         0.001456      0.000485      0.002443
      7.59052      7.15728      5.05085        -0.003497      0.003410     -0.001712
     17.55256     28.15546      6.65691         0.000294      0.001217     -0.001949
     19.34354      2.70145      5.22248        -0.000115     -0.001103      0.003393
     19.27493     19.69775      2.99113         0.000415      0.001069      0.001462
     13.38693     16.33361      4.05504        -0.000370     -0.002619      0.001336
     13.47164      6.05066      4.19746         0.000696      0.001780     -0.000666
      4.29206     22.28239      7.57643        -0.000291      0.001873      0.001380
     15.19621     13.96632      2.26019         0.002173     -0.000494      0.000026
     15.26441      8.43017      5.98907        -0.000093     -0.000646     -0.000899
      6.59626     14.21105      5.09015        -0.000554      0.001401     -0.004134
      2.48709     19.92510      5.79041         0.003269      0.000985     -0.001912
      2.57513      2.35006      2.38961         0.002923      0.000449      0.001682
      8.44836      5.69248      1.36388        -0.003088     -0.000597      0.000693
     17.48031     22.05846      4.77614         0.001126      0.000004     -0.000276
      4.35375     27.80221      3.82533        -0.000585      0.001300     -0.001088
      6.64827      8.07961      3.16415        -0.001975     -0.000245      0.006029
      8.39280     16.56469      6.87063        -0.004031      0.001908     -0.001082
 -----------------------------------------------------------------------------------
    total drift:                               -0.004850      0.030472      0.015599


--------------------------------------------------------------------------------------------------------



  FREE ENERGIE OF THE ION-ELECTRON SYSTEM (eV)
  ---------------------------------------------------
  free  energy   TOTEN  =     -1185.98999176 eV

  energy  without entropy=    -1185.95998183  energy(sigma->0) =    -1185.97498679
 


--------------------------------------------------------------------------------------------------------


    POTLOK:  cpu time    0.4030: real time    0.4031


--------------------------------------------------------------------------------------------------------




--------------------------------------------------------------------------------------------------------


  
 reached required accuracy - stopping structural energy minimisation
 writing wavefunctions
     LOOP+:  cpu time 1250.6723: real time 1255.1327
    4ORBIT:  cpu time    0.0000: real time    0.0000
 


 total charge     
 
# of ion       s       p       d       tot
------------------------------------------
    1        0.871   1.770   0.000   2.641
    2        0.868   1.770   0.000   2.639
    3        0.870   1.770   0.000   2.641
    4        0.871   1.770   0.000   2.641
    5        0.868   1.771   0.000   2.639
    6        0.868   1.770   0.000   2.639
    7        0.868   1.771   0.000   2.639
    8        0.871   1.770   0.000   2.641
    9        0.868   1.771   0.000   2.639
   10        0.871   1.770   0.000   2.641
   11        0.868   1.771   0.000   2.639
   12        0.868   1.771   0.000   2.639
   13        0.868   1.770   0.000   2.639
   14        0.871   1.770   0.000   2.640
   15        0.871   1.770   0.000   2.641
   16        0.871   1.770   0.000   2.641
   17        0.864   1.717   0.000   2.581
   18        0.864   1.717   0.000   2.580
   19        0.864   1.717   0.000   2.581
   20        0.864   1.717   0.000   2.581
   21        0.864   1.717   0.000   2.581
   22        0.864   1.717   0.000   2.581
   23        0.864   1.717   0.000   2.581
   24        0.864   1.717   0.000   2.581
   25        0.864   1.717   0.000   2.581
   26        0.864   1.717   0.000   2.580
   27        0.864   1.717   0.000   2.580
   28        0.864   1.717   0.000   2.581
   29        0.864   1.717   0.000   2.581
   30        0.864   1.717   0.000   2.581
   31        0.864   1.717   0.000   2.581
   32        0.864   1.717   0.000   2.581
   33        0.866   1.786   0.000   2.652
   34        0.865   1.785   0.000   2.650
   35        0.865   1.785   0.000   2.650
   36        0.865   1.785   0.000   2.650
   37        0.865   1.785   0.000   2.650
   38        0.866   1.786   0.000   2.652
   39        0.866   1.786   0.000   2.652
   40        0.866   1.786   0.000   2.652
   41        0.866   1.786   0.000   2.652
   42        0.865   1.785   0.000   2.650
   43        0.865   1.785   0.000   2.650
   44        0.865   1.785   0.000   2.650
   45        0.865   1.786   0.000   2.651
   46        0.866   1.786   0.000   2.652
   47        0.866   1.786   0.000   2.652
   48        0.865   1.785   0.000   2.651
   49        0.870   1.768   0.000   2.637
   50        0.870   1.768   0.000   2.637
   51        0.870   1.768   0.000   2.638
   52        0.870   1.768   0.000   2.637
   53        0.870   1.768   0.000   2.638
   54        0.870   1.767   0.000   2.637
   55        0.870   1.768   0.000   2.637
   56        0.870   1.767   0.000   2.637
   57        0.870   1.768   0.000   2.637
   58        0.870   1.768   0.000   2.638
   59        0.870   1.768   0.000   2.638
   60        0.870   1.768   0.000   2.638
   61        0.870   1.767   0.000   2.637
   62        0.870   1.767   0.000   2.637
   63        0.870   1.768   0.000   2.637
   64        0.870   1.768   0.000   2.638
   65        0.848   1.790   0.000   2.637
   66        0.848   1.790   0.000   2.638
   67        0.848   1.790   0.000   2.638
   68        0.848   1.790   0.000   2.638
   69        0.848   1.790   0.000   2.638
   70        0.848   1.790   0.000   2.638
   71        0.848   1.790   0.000   2.638
   72        0.848   1.790   0.000   2.638
   73        0.865   1.790   0.000   2.656
   74        0.865   1.790   0.000   2.656
   75        0.865   1.791   0.000   2.656
   76        0.865   1.791   0.000   2.656
   77        0.865   1.791   0.000   2.656
   78        0.865   1.791   0.000   2.656
   79        0.865   1.791   0.000   2.656
   80        0.865   1.791   0.000   2.656
   81        0.394   0.505   6.045   6.944
   82        0.393   0.503   6.044   6.941
   83        0.394   0.505   6.045   6.944
   84        0.394   0.504   6.045   6.943
   85        0.638   0.048   0.000   0.686
   86        0.638   0.048   0.000   0.686
   87        0.638   0.048   0.000   0.686
   88        0.638   0.048   0.000   0.686
   89        0.638   0.048   0.000   0.686
   90        0.638   0.048   0.000   0.686
   91        0.638   0.048   0.000   0.686
   92        0.638   0.048   0.000   0.686
   93        0.638   0.048   0.000   0.686
   94        0.638   0.048   0.000   0.686
   95        0.638   0.048   0.000   0.686
   96        0.638   0.048   0.000   0.686
   97        0.638   0.048   0.000   0.686
   98        0.638   0.048   0.000   0.686
   99        0.638   0.048   0.000   0.686
  100        0.638   0.048   0.000   0.686
  101        0.634   0.049   0.000   0.683
  102        0.634   0.049   0.000   0.683
  103        0.627   0.051   0.000   0.678
  104        0.627   0.051   0.000   0.678
  105        0.634   0.049   0.000   0.683
  106        0.627   0.051   0.000   0.678
  107        0.627   0.051   0.000   0.678
  108        0.634   0.049   0.000   0.683
  109        0.627   0.051   0.000   0.678
  110        0.627   0.051   0.000   0.678
  111        0.634   0.049   0.000   0.683
  112        0.634   0.049   0.000   0.683
  113        0.627   0.051   0.000   0.678
  114        0.634   0.049   0.000   0.683
  115        0.634   0.049   0.000   0.683
  116        0.627   0.051   0.000   0.678
  117        1.240   2.612   0.000   3.852
  118        1.239   2.610   0.000   3.850
  119        1.240   2.612   0.000   3.852
  120        1.240   2.612   0.000   3.852
  121        1.239   2.611   0.000   3.850
  122        1.239   2.610   0.000   3.850
  123        1.239   2.611   0.000   3.850
  124        1.240   2.612   0.000   3.852
  125        1.239   2.611   0.000   3.850
  126        1.240   2.612   0.000   3.852
  127        1.239   2.611   0.000   3.850
  128        1.239   2.611   0.000   3.850
  129        1.239   2.610   0.000   3.850
  130        1.240   2.612   0.000   3.852
  131        1.240   2.612   0.000   3.852
  132        1.240   2.612   0.000   3.852
  133        1.211   2.729   0.000   3.940
  134        1.211   2.729   0.000   3.941
  135        1.211   2.729   0.000   3.941
  136        1.211   2.730   0.000   3.941
  137        1.211   2.729   0.000   3.940
  138        1.211   2.730   0.000   3.941
  139        1.211   2.729   0.000   3.941
  140        1.211   2.730   0.000   3.941
  141        1.584   3.544   0.000   5.127
  142        1.585   3.536   0.000   5.121
  143        1.585   3.537   0.000   5.121
  144        1.585   3.536   0.000   5.121
  145        1.585   3.537   0.000   5.121
  146        1.584   3.544   0.000   5.127
  147        1.584   3.544   0.000   5.127
  148        1.584   3.543   0.000   5.127
  149        1.584   3.543   0.000   5.127
  150        1.585   3.537   0.000   5.121
  151        1.585   3.537   0.000   5.121
  152        1.585   3.537   0.000   5.121
  153        1.584   3.543   0.000   5.127
  154        1.584   3.543   0.000   5.127
  155        1.584   3.544   0.000   5.127
  156        1.585   3.537   0.000   5.121
--------------------------------------------------
tot        145.944 265.138  24.180 435.261
 


 magnetization (x)
 
# of ion       s       p       d       tot
------------------------------------------
    1        0.003   0.019   0.000   0.022
    2        0.003   0.020   0.000   0.022
    3        0.003   0.019   0.000   0.022
    4       -0.003  -0.019   0.000  -0.022
    5       -0.003  -0.020   0.000  -0.022
    6        0.003   0.020   0.000   0.022
    7       -0.003  -0.020   0.000  -0.022
    8       -0.003  -0.019   0.000  -0.022
    9       -0.003  -0.020   0.000  -0.022
   10        0.003   0.019   0.000   0.022
   11        0.003   0.020   0.000   0.022
   12       -0.003  -0.020   0.000  -0.022
   13        0.003   0.020   0.000   0.022
   14        0.003   0.019   0.000   0.022
   15       -0.003  -0.019   0.000  -0.022
   16       -0.003  -0.019   0.000  -0.022
   17        0.000   0.001   0.000   0.001
   18        0.000   0.001   0.000   0.001
   19        0.000   0.001   0.000   0.001
   20       -0.000  -0.001   0.000  -0.001
   21       -0.000  -0.001   0.000  -0.001
   22        0.000   0.001   0.000   0.001
   23       -0.000  -0.001   0.000  -0.001
   24       -0.000  -0.001   0.000  -0.001
   25       -0.000  -0.001   0.000  -0.001
   26        0.000   0.001   0.000   0.001
   27        0.000   0.001   0.000   0.001
   28       -0.000  -0.001   0.000  -0.001
   29        0.000   0.001   0.000   0.001
   30        0.000   0.001   0.000   0.001
   31       -0.000  -0.001   0.000  -0.001
   32       -0.000  -0.001   0.000  -0.001
   33       -0.000  -0.000   0.000  -0.000
   34        0.000  -0.000   0.000  -0.000
   35        0.000  -0.000   0.000  -0.000
   36       -0.000   0.000   0.000   0.000
   37       -0.000   0.000   0.000   0.000
   38       -0.000  -0.000   0.000  -0.000
   39        0.000   0.000   0.000   0.000
   40        0.000   0.000   0.000   0.000
   41        0.000   0.000   0.000   0.000
   42        0.000  -0.000   0.000  -0.000
   43        0.000  -0.000   0.000  -0.000
   44       -0.000   0.000   0.000   0.000
   45       -0.000  -0.000   0.000  -0.000
   46       -0.000  -0.000   0.000  -0.000
   47        0.000   0.000   0.000   0.000
   48       -0.000   0.000   0.000   0.000
   49        0.000   0.000   0.000   0.000
   50        0.000   0.000   0.000   0.000
   51        0.000   0.000   0.000   0.000
   52       -0.000  -0.000   0.000  -0.000
   53       -0.000  -0.000   0.000  -0.000
   54        0.000   0.000   0.000   0.000
   55       -0.000  -0.000   0.000  -0.000
   56       -0.000  -0.000   0.000  -0.000
   57       -0.000  -0.000   0.000  -0.000
   58        0.000   0.000   0.000   0.000
   59        0.000   0.000   0.000   0.000
   60       -0.000  -0.000   0.000  -0.000
   61        0.000   0.000   0.000   0.000
   62        0.000   0.000   0.000   0.000
   63       -0.000  -0.000   0.000  -0.000
   64       -0.000  -0.000   0.000  -0.000
   65        0.002   0.016   0.000   0.018
   66        0.002   0.016   0.000   0.018
   67       -0.002  -0.016   0.000  -0.018
   68       -0.002  -0.016   0.000  -0.018
   69        0.002   0.016   0.000   0.018
   70       -0.002  -0.016   0.000  -0.018
   71        0.002   0.016   0.000   0.018
   72       -0.002  -0.016   0.000  -0.018
   73        0.000   0.000   0.000   0.000
   74        0.000   0.000   0.000   0.000
   75       -0.000  -0.000   0.000  -0.000
   76       -0.000  -0.000   0.000  -0.000
   77        0.000   0.000   0.000   0.000
   78       -0.000  -0.000   0.000  -0.000
   79        0.000   0.000   0.000   0.000
   80       -0.000  -0.000   0.000  -0.000
   81        0.016   0.066   3.419   3.501
   82        0.016   0.066   3.419   3.502
   83       -0.017  -0.066  -3.419  -3.502
   84       -0.017  -0.066  -3.419  -3.502
   85        0.000  -0.000   0.000   0.000
   86        0.000  -0.000   0.000   0.000
   87        0.000  -0.000   0.000   0.000
   88       -0.000   0.000   0.000  -0.000
   89       -0.000   0.000   0.000  -0.000
   90        0.000  -0.000   0.000   0.000
   91       -0.000   0.000   0.000  -0.000
   92       -0.000   0.000   0.000  -0.000
   93       -0.000   0.000   0.000  -0.000
   94        0.000  -0.000   0.000   0.000
   95        0.000  -0.000   0.000   0.000
   96       -0.000   0.000   0.000  -0.000
   97        0.000  -0.000   0.000   0.000
   98        0.000  -0.000   0.000   0.000
   99       -0.000   0.000   0.000  -0.000
  100       -0.000   0.000   0.000  -0.000
  101       -0.000  -0.000   0.000  -0.000
  102       -0.000  -0.000   0.000  -0.000
  103       -0.000  -0.000   0.000  -0.000
  104        0.000   0.000   0.000   0.000
  105        0.000   0.000   0.000   0.000
  106       -0.000  -0.000   0.000  -0.000
  107        0.000   0.000   0.000   0.000
  108        0.000   0.000   0.000   0.000
  109        0.000   0.000   0.000   0.000
  110       -0.000  -0.000   0.000  -0.000
  111       -0.000  -0.000   0.000  -0.000
  112        0.000   0.000   0.000   0.000
  113       -0.000  -0.000   0.000  -0.000
  114       -0.000  -0.000   0.000  -0.000
  115        0.000   0.000   0.000   0.000
  116        0.000   0.000   0.000   0.000
  117        0.012   0.041   0.000   0.053
  118        0.014   0.047   0.000   0.061
  119        0.012   0.041   0.000   0.053
  120       -0.012  -0.041   0.000  -0.052
  121       -0.014  -0.047   0.000  -0.062
  122        0.014   0.047   0.000   0.061
  123       -0.014  -0.047   0.000  -0.062
  124       -0.012  -0.041   0.000  -0.052
  125       -0.014  -0.047   0.000  -0.062
  126        0.012   0.041   0.000   0.053
  127        0.014   0.047   0.000   0.061
  128       -0.014  -0.047   0.000  -0.062
  129        0.014   0.047   0.000   0.062
  130        0.012   0.041   0.000   0.053
  131       -0.012  -0.041   0.000  -0.053
  132       -0.012  -0.041   0.000  -0.052
  133        0.000   0.000   0.000   0.000
  134        0.000   0.000   0.000   0.000
  135       -0.000  -0.000   0.000  -0.000
  136       -0.000  -0.000   0.000  -0.000
  137        0.000   0.000   0.000   0.000
  138       -0.000  -0.000   0.000  -0.000
  139        0.000   0.000   0.000   0.000
  140       -0.000  -0.000   0.000  -0.000
  141        0.000   0.001   0.000   0.001
  142        0.000   0.001   0.000   0.001
  143        0.000   0.001   0.000   0.001
  144       -0.000  -0.001   0.000  -0.001
  145       -0.000  -0.001   0.000  -0.001
  146        0.000   0.001   0.000   0.001
  147       -0.000  -0.001   0.000  -0.001
  148       -0.000  -0.001   0.000  -0.001
  149       -0.000  -0.001   0.000  -0.001
  150        0.000   0.001   0.000   0.001
  151        0.000   0.001   0.000   0.001
  152       -0.000  -0.001   0.000  -0.001
  153        0.000   0.001   0.000   0.001
  154        0.000   0.001   0.000   0.001
  155       -0.000  -0.001   0.000  -0.001
  156       -0.000  -0.001   0.000  -0.001
--------------------------------------------------
tot         -0.000   0.000   0.001   0.001
 

 total amount of memory used by VASP MPI-rank0   105121. kBytes
=======================================================================

   base      :      30000. kBytes
   nonlr-proj:       7070. kBytes
   fftplans  :       8924. kBytes
   grid      :      24847. kBytes
   one-center:       1213. kBytes
   wavefun   :      33067. kBytes
 
  
  
 General timing and accounting informations for this job:
 ========================================================
  
                  Total CPU time used (sec):     1449.121
                            User time (sec):     1342.463
                          System time (sec):      106.658
                         Elapsed time (sec):     1461.539
  
                   Maximum memory used (kb):      941852.
                   Average memory used (kb):           0.
  
                          Minor page faults:       102683
                          Major page faults:            9
                 Voluntary context switches:        40090
