       N       E                     dE             d eps       ncg     rms          rms(c)
DAV:   1     0.578469753745E+04    0.57847E+04   -0.25881E+05  3072   0.140E+03
DAV:   2    -0.139516969996E+03   -0.59242E+04   -0.56883E+04  4480   0.316E+02
DAV:   3    -0.125532394978E+04   -0.11158E+04   -0.11086E+04  3744   0.144E+02
DAV:   4    -0.129672818332E+04   -0.41404E+02   -0.41043E+02  4064   0.374E+01
DAV:   5    -0.129796423848E+04   -0.12361E+01   -0.12320E+01  4416   0.588E+00    0.849E+01
DAV:   6    -0.149045785122E+04   -0.19249E+03   -0.22682E+03  4096   0.830E+01    0.212E+02
DAV:   7    -0.139084326863E+04    0.99615E+02   -0.20476E+02  3616   0.301E+01    0.134E+02
DAV:   8    -0.115710387602E+04    0.23374E+03   -0.28500E+02  4384   0.981E+01    0.345E+01
DAV:   9    -0.116965264476E+04   -0.12549E+02   -0.94602E+01  3904   0.140E+01    0.303E+01
DAV:  10    -0.116521381507E+04    0.44388E+01   -0.48666E+01  4256   0.137E+01    0.176E+01
DAV:  11    -0.116735986451E+04   -0.21460E+01   -0.17467E+01  4128   0.933E+00    0.217E+01
DAV:  12    -0.116712874436E+04    0.23112E+00   -0.19171E+01  4448   0.106E+01    0.201E+01
DAV:  13    -0.116703614766E+04    0.92597E-01   -0.76947E+00  4256   0.810E+00    0.105E+01
DAV:  14    -0.116740815377E+04   -0.37201E+00   -0.66965E-01  4288   0.484E+00    0.121E+01
DAV:  15    -0.116730574902E+04    0.10240E+00   -0.65723E-01  4032   0.316E+00    0.494E+00
DAV:  16    -0.116747391812E+04   -0.16817E+00   -0.10709E-01  4064   0.163E+00    0.442E+00
DAV:  17    -0.116755055490E+04   -0.76637E-01   -0.54345E-02  4352   0.101E+00    0.353E+00
DAV:  18    -0.116764238327E+04   -0.91828E-01   -0.10902E-01  4352   0.187E+00    0.196E+00
DAV:  19    -0.116774029445E+04   -0.97911E-01   -0.13786E-01  4384   0.186E+00    0.116E+00
DAV:  20    -0.116783429916E+04   -0.94005E-01   -0.82534E-02  4288   0.118E+00    0.769E-01
DAV:  21    -0.116803225230E+04   -0.19795E+00   -0.74818E-02  4800   0.147E+00    0.444E-01
DAV:  22    -0.116825359628E+04   -0.22134E+00   -0.11201E-01  4160   0.984E-01    0.735E-01
DAV:  23    -0.116829855411E+04   -0.44958E-01   -0.42259E-02  4224   0.630E-01    0.432E-01
DAV:  24    -0.116838900474E+04   -0.90451E-01   -0.78148E-03  3776   0.158E-01    0.298E-01
DAV:  25    -0.116859889210E+04   -0.20989E+00   -0.21435E-02  3968   0.384E-01    0.381E-01
DAV:  26    -0.116865869294E+04   -0.59801E-01   -0.72786E-03  4032   0.302E-01    0.122E-01
DAV:  27    -0.116869102113E+04   -0.32328E-01   -0.39531E-03  4064   0.141E-01    0.781E-02
DAV:  28    -0.116870842447E+04   -0.17403E-01   -0.16388E-03  3904   0.778E-02    0.582E-02
DAV:  29    -0.116871678475E+04   -0.83603E-02   -0.74737E-04  3776   0.495E-02    0.365E-02
DAV:  30    -0.116871932769E+04   -0.25429E-02   -0.18886E-04  4000   0.214E-02    0.285E-02
DAV:  31    -0.116872071987E+04   -0.13922E-02   -0.11827E-04  4032   0.310E-02    0.195E-02
DAV:  32    -0.116872148833E+04   -0.76847E-03   -0.90958E-05  3808   0.199E-02    0.159E-02
DAV:  33    -0.116872186198E+04   -0.37365E-03   -0.21770E-05  3808   0.883E-03    0.116E-02
DAV:  34    -0.116872213211E+04   -0.27012E-03   -0.12203E-05  3616   0.112E-02    0.521E-03
DAV:  35    -0.116872233368E+04   -0.20157E-03   -0.13516E-05  3424   0.746E-03    0.298E-03
DAV:  36    -0.116872240528E+04   -0.71607E-04   -0.26235E-06  3072   0.271E-03    0.246E-03
DAV:  37    -0.116872245350E+04   -0.48220E-04   -0.11510E-06  2464   0.176E-03    0.178E-03
DAV:  38    -0.116872248608E+04   -0.32575E-04   -0.14134E-06  2816   0.143E-03    0.129E-03
DAV:  39    -0.116872249389E+04   -0.78104E-05   -0.18502E-07  2368   0.710E-04    0.968E-04
DAV:  40    -0.116872249779E+04   -0.38995E-05   -0.13799E-07  2400   0.791E-04    0.649E-04
DAV:  41    -0.116872250018E+04   -0.23944E-05   -0.93168E-08  2368   0.774E-04    0.315E-04
DAV:  42    -0.116872250141E+04   -0.12278E-05   -0.59367E-08  2176   0.520E-04    0.218E-04
DAV:  43    -0.116872250223E+04   -0.81643E-06   -0.28345E-08  2144   0.334E-04
   1 F= -.11781351E+04 E0= -.11781346E+04  d E =-.117814E+04  mag=     0.0001
