 vasp.6.0.8 29Jun18 (build Mar 14 2019 11:44:20) complex                        
  
 executed on             LinuxIFC date 2020.12.30  15:08:46
 running  128 mpi-ranks, with    1 threads/rank
 distrk:  each k-point on  128 cores,    1 groups
 distr:  one band on NCORES_PER_BAND=   4 cores,   32 groups


--------------------------------------------------------------------------------------------------------


 INCAR:
 POTCAR:    PAW_PBE C 08Apr2002                   
 POTCAR:    PAW_PBE Co 02Aug2007                  
 POTCAR:    PAW_PBE H 15Jun2001                   
 POTCAR:    PAW_PBE N 08Apr2002                   
 POTCAR:    PAW_PBE O 08Apr2002                   
 POTCAR:    PAW_PBE C 08Apr2002                   
   VRHFIN =C: s2p2                                                              
   LEXCH  = PE                                                                  
   EATOM  =   147.1560 eV,   10.8157 Ry                                         
                                                                                
   TITEL  = PAW_PBE C 08Apr2002                                                 
   LULTRA =        F    use ultrasoft PP ?                                      
   IUNSCR =        1    unscreen: 0-lin 1-nonlin 2-no                           
   RPACOR =    1.200    partial core radius                                     
   POMASS =   12.011; ZVAL   =    4.000    mass and valenz                      
   RCORE  =    1.500    outmost cutoff radius                                   
   RWIGS  =    1.630; RWIGS  =    0.863    wigner-seitz radius (au A)           
   ENMAX  =  400.000; ENMIN  =  300.000 eV                                      
   ICORE  =        2    local potential                                         
   LCOR   =        T    correct aug charges                                     
   LPAW   =        T    paw PP                                                  
   EAUG   =  644.873                                                            
   DEXC   =    0.000                                                            
   RMAX   =    1.529    core radius for proj-oper                               
   RAUG   =    1.300    factor for augmentation sphere                          
   RDEP   =    1.501    radius for radial grids                                 
   RDEPT  =    1.300    core radius for aug-charge                              
                                                                                
   Atomic configuration                                                         
    4 entries                                                                   
     n  l   j            E        occ.                                          
     1  0  0.50      -273.3789   2.0000                                         
     2  0  0.50       -13.7508   2.0000                                         
     2  1  0.50        -5.2854   2.0000                                         
     3  2  1.50        -5.4423   0.0000                                         
   Description                                                                  
     l       E           TYP  RCUT    TYP  RCUT                                 
     0    -13.7508458     23  1.200                                             
     0     -8.2022199     23  1.200                                             
     1     -5.2854383     23  1.500                                             
     1     34.0145650     23  1.500                                             
     2     -5.4423304      7  1.500                                             
  local pseudopotential read in
  partial core-charges read in
  partial kinetic energy density read in
  atomic valenz-charges read in
  non local Contribution for L=           0  read in
    real space projection operators read in
  non local Contribution for L=           0  read in
    real space projection operators read in
  non local Contribution for L=           1  read in
    real space projection operators read in
  non local Contribution for L=           1  read in
    real space projection operators read in
    PAW grid and wavefunctions read in
 
   number of l-projection  operators is LMAX  =           4
   number of lm-projection operators is LMMAX =           8
 
 POTCAR:    PAW_PBE Co 02Aug2007                  
   VRHFIN =Co: d8 s1                                                            
   LEXCH  = PE                                                                  
   EATOM  =   813.3670 eV,   59.7808 Ry                                         
                                                                                
   TITEL  = PAW_PBE Co 02Aug2007                                                
   LULTRA =        F    use ultrasoft PP ?                                      
   IUNSCR =        1    unscreen: 0-lin 1-nonlin 2-no                           
   RPACOR =    2.000    partial core radius                                     
   POMASS =   58.933; ZVAL   =    9.000    mass and valenz                      
   RCORE  =    2.300    outmost cutoff radius                                   
   RWIGS  =    2.460; RWIGS  =    1.302    wigner-seitz radius (au A)           
   ENMAX  =  267.968; ENMIN  =  200.976 eV                                      
   RCLOC  =    1.203    cutoff for local pot                                    
   LCOR   =        T    correct aug charges                                     
   LPAW   =        T    paw PP                                                  
   EAUG   =  477.818                                                            
   DEXC   =    0.000                                                            
   RMAX   =    2.360    core radius for proj-oper                               
   RAUG   =    1.300    factor for augmentation sphere                          
   RDEP   =    2.393    radius for radial grids                                 
   RDEPT  =    1.864    core radius for aug-charge                              
                                                                                
   Atomic configuration                                                         
    9 entries                                                                   
     n  l   j            E        occ.                                          
     1  0  0.50     -7587.6674   2.0000                                         
     2  0  0.50      -893.6084   2.0000                                         
     2  1  1.50      -764.5805   6.0000                                         
     3  0  0.50       -97.5973   2.0000                                         
     3  1  1.50       -60.9648   6.0000                                         
     3  2  2.50        -4.2382   8.0000                                         
     4  0  0.50        -4.3746   1.0000                                         
     4  1  1.50        -4.0817   0.0000                                         
     4  3  2.50        -1.3606   0.0000                                         
   Description                                                                  
     l       E           TYP  RCUT    TYP  RCUT                                 
     2     -4.2382362     23  2.300                                             
     2     -5.5988188     23  2.300                                             
     0     -4.3745797     23  2.300                                             
     0      5.7660125     23  2.300                                             
     1     -2.7211652     23  2.300                                             
     1     16.9860234     23  2.300                                             
  local pseudopotential read in
  partial core-charges read in
  partial kinetic energy density read in
  atomic valenz-charges read in
  non local Contribution for L=           2  read in
    real space projection operators read in
  non local Contribution for L=           2  read in
    real space projection operators read in
  non local Contribution for L=           0  read in
    real space projection operators read in
  non local Contribution for L=           0  read in
    real space projection operators read in
  non local Contribution for L=           1  read in
    real space projection operators read in
  non local Contribution for L=           1  read in
    real space projection operators read in
    PAW grid and wavefunctions read in
 
   number of l-projection  operators is LMAX  =           6
   number of lm-projection operators is LMMAX =          18
 
 POTCAR:    PAW_PBE H 15Jun2001                   
   VRHFIN =H: ultrasoft test                                                    
   LEXCH  = PE                                                                  
   EATOM  =    12.4884 eV,    0.9179 Ry                                         
                                                                                
   TITEL  = PAW_PBE H 15Jun2001                                                 
   LULTRA =        F    use ultrasoft PP ?                                      
   IUNSCR =        0    unscreen: 0-lin 1-nonlin 2-no                           
   RPACOR =    0.000    partial core radius                                     
   POMASS =    1.000; ZVAL   =    1.000    mass and valenz                      
   RCORE  =    1.100    outmost cutoff radius                                   
   RWIGS  =    0.700; RWIGS  =    0.370    wigner-seitz radius (au A)           
   ENMAX  =  250.000; ENMIN  =  200.000 eV                                      
   RCLOC  =    0.701    cutoff for local pot                                    
   LCOR   =        T    correct aug charges                                     
   LPAW   =        T    paw PP                                                  
   EAUG   =  400.000                                                            
   RMAX   =    1.123    core radius for proj-oper                               
   RAUG   =    1.200    factor for augmentation sphere                          
   RDEP   =    1.112    radius for radial grids                                 
   RDEPT  =    0.926    core radius for aug-charge                              
                                                                                
   Atomic configuration                                                         
    2 entries                                                                   
     n  l   j            E        occ.                                          
     1  0  0.50        -6.4927   1.0000                                         
     2  1  0.50        -3.4015   0.0000                                         
   Description                                                                  
     l       E           TYP  RCUT    TYP  RCUT                                 
     0     -6.4927494     23  1.100                                             
     0      6.8029130     23  1.100                                             
     1     -4.0817478     23  1.100                                             
  local pseudopotential read in
  atomic valenz-charges read in
  non local Contribution for L=           0  read in
    real space projection operators read in
  non local Contribution for L=           0  read in
    real space projection operators read in
  non local Contribution for L=           1  read in
    real space projection operators read in
    PAW grid and wavefunctions read in
 
   number of l-projection  operators is LMAX  =           3
   number of lm-projection operators is LMMAX =           5
 
 POTCAR:    PAW_PBE N 08Apr2002                   
   VRHFIN =N: s2p3                                                              
   LEXCH  = PE                                                                  
   EATOM  =   264.5486 eV,   19.4438 Ry                                         
                                                                                
   TITEL  = PAW_PBE N 08Apr2002                                                 
   LULTRA =        F    use ultrasoft PP ?                                      
   IUNSCR =        1    unscreen: 0-lin 1-nonlin 2-no                           
   RPACOR =    1.200    partial core radius                                     
   POMASS =   14.001; ZVAL   =    5.000    mass and valenz                      
   RCORE  =    1.500    outmost cutoff radius                                   
   RWIGS  =    1.400; RWIGS  =    0.741    wigner-seitz radius (au A)           
   ENMAX  =  400.000; ENMIN  =  300.000 eV                                      
   ICORE  =        2    local potential                                         
   LCOR   =        T    correct aug charges                                     
   LPAW   =        T    paw PP                                                  
   EAUG   =  627.112                                                            
   DEXC   =    0.000                                                            
   RMAX   =    1.529    core radius for proj-oper                               
   RAUG   =    1.300    factor for augmentation sphere                          
   RDEP   =    1.514    radius for radial grids                                 
   RDEPT  =    1.338    core radius for aug-charge                              
                                                                                
   Atomic configuration                                                         
    4 entries                                                                   
     n  l   j            E        occ.                                          
     1  0  0.50      -384.7179   2.0000                                         
     2  0  0.50       -18.5828   2.0000                                         
     2  1  0.50        -7.0898   3.0000                                         
     3  2  1.50        -6.8029   0.0000                                         
   Description                                                                  
     l       E           TYP  RCUT    TYP  RCUT                                 
     0    -18.5828119     23  1.200                                             
     0    -13.5018863     23  1.200                                             
     1     -7.0897853     23  1.500                                             
     1      9.5240782     23  1.500                                             
     2     -6.8029130      7  1.500                                             
  local pseudopotential read in
  partial core-charges read in
  partial kinetic energy density read in
  atomic valenz-charges read in
  non local Contribution for L=           0  read in
    real space projection operators read in
  non local Contribution for L=           0  read in
    real space projection operators read in
  non local Contribution for L=           1  read in
    real space projection operators read in
  non local Contribution for L=           1  read in
    real space projection operators read in
    PAW grid and wavefunctions read in
 
   number of l-projection  operators is LMAX  =           4
   number of lm-projection operators is LMMAX =           8
 
 POTCAR:    PAW_PBE O 08Apr2002                   
   VRHFIN =O: s2p4                                                              
   LEXCH  = PE                                                                  
   EATOM  =   432.3788 eV,   31.7789 Ry                                         
                                                                                
   TITEL  = PAW_PBE O 08Apr2002                                                 
   LULTRA =        F    use ultrasoft PP ?                                      
   IUNSCR =        1    unscreen: 0-lin 1-nonlin 2-no                           
   RPACOR =    1.200    partial core radius                                     
   POMASS =   16.000; ZVAL   =    6.000    mass and valenz                      
   RCORE  =    1.520    outmost cutoff radius                                   
   RWIGS  =    1.550; RWIGS  =    0.820    wigner-seitz radius (au A)           
   ENMAX  =  400.000; ENMIN  =  300.000 eV                                      
   ICORE  =        2    local potential                                         
   LCOR   =        T    correct aug charges                                     
   LPAW   =        T    paw PP                                                  
   EAUG   =  605.392                                                            
   DEXC   =    0.000                                                            
   RMAX   =    1.553    core radius for proj-oper                               
   RAUG   =    1.300    factor for augmentation sphere                          
   RDEP   =    1.550    radius for radial grids                                 
   RDEPT  =    1.329    core radius for aug-charge                              
                                                                                
   Atomic configuration                                                         
    4 entries                                                                   
     n  l   j            E        occ.                                          
     1  0  0.50      -514.6923   2.0000                                         
     2  0  0.50       -23.9615   2.0000                                         
     2  1  0.50        -9.0305   4.0000                                         
     3  2  1.50        -9.5241   0.0000                                         
   Description                                                                  
     l       E           TYP  RCUT    TYP  RCUT                                 
     0    -23.9615318     23  1.200                                             
     0     -9.5240782     23  1.200                                             
     1     -9.0304911     23  1.520                                             
     1      8.1634956     23  1.520                                             
     2     -9.5240782      7  1.500                                             
  local pseudopotential read in
  partial core-charges read in
  partial kinetic energy density read in
  kinetic energy density of atom read in
  atomic valenz-charges read in
  non local Contribution for L=           0  read in
    real space projection operators read in
  non local Contribution for L=           0  read in
    real space projection operators read in
  non local Contribution for L=           1  read in
    real space projection operators read in
  non local Contribution for L=           1  read in
    real space projection operators read in
    PAW grid and wavefunctions read in
 
   number of l-projection  operators is LMAX  =           4
   number of lm-projection operators is LMMAX =           8
 
 Optimization of the real space projectors (new method)

 maximal supplied QI-value         = 25.13
 optimisation between [QCUT,QGAM] = [ 12.32, 24.88] = [ 42.47,173.37] Ry 
 Optimized for a Real-space Cutoff    1.06 Angstroem

   l    n(q)    QCUT    max X(q) W(low)/X(q) W(high)/X(q)  e(spline) 
   0      8    12.315   115.676    0.34E-03    0.18E-03    0.23E-06
   0      8    12.315    87.132    0.34E-03    0.18E-03    0.22E-06
   1      7    12.315     4.429    0.45E-03    0.12E-03    0.18E-06
   1      7    12.315     2.733    0.35E-03    0.97E-04    0.15E-06
 Optimization of the real space projectors (new method)

 maximal supplied QI-value         = 16.25
 optimisation between [QCUT,QGAM] = [ 12.51, 25.03] = [ 43.85,175.40] Ry 
 Optimized for a Real-space Cutoff    1.31 Angstroem

   l    n(q)    QCUT    max X(q) W(low)/X(q) W(high)/X(q)  e(spline) 
   2      9    12.514    65.824    0.30E-03    0.46E-03    0.43E-06
   2      9    12.514    61.429    0.31E-03    0.46E-03    0.44E-06
   0     10    12.514    56.174    0.90E-04    0.33E-03    0.30E-06
   0     10    12.514    31.263    0.81E-04    0.30E-03    0.28E-06
   1      9    12.514    19.828    0.38E-03    0.65E-04    0.24E-06
   1      9    12.514    15.139    0.32E-03    0.60E-04    0.20E-06
 Optimization of the real space projectors (new method)

 maximal supplied QI-value         = 34.20
 optimisation between [QCUT,QGAM] = [ 12.31, 24.97] = [ 42.46,174.58] Ry 
 Optimized for a Real-space Cutoff    1.00 Angstroem

   l    n(q)    QCUT    max X(q) W(low)/X(q) W(high)/X(q)  e(spline) 
   0      7    12.313    19.460    0.14E-03    0.42E-03    0.16E-06
   0      7    12.313    12.209    0.12E-03    0.40E-03    0.16E-06
   1      7    12.313     4.655    0.33E-03    0.59E-03    0.89E-07
 Optimization of the real space projectors (new method)

 maximal supplied QI-value         = 25.13
 optimisation between [QCUT,QGAM] = [ 12.32, 24.88] = [ 42.47,173.37] Ry 
 Optimized for a Real-space Cutoff    1.20 Angstroem

   l    n(q)    QCUT    max X(q) W(low)/X(q) W(high)/X(q)  e(spline) 
   0      9    12.315    79.467    0.14E-03    0.22E-04    0.37E-06
   0      9    12.315    66.151    0.14E-03    0.23E-04    0.36E-06
   1      8    12.315    22.077    0.30E-03    0.54E-03    0.45E-06
   1      8    12.315    15.894    0.30E-03    0.55E-03    0.45E-06
 Optimization of the real space projectors (new method)

 maximal supplied QI-value         = 24.76
 optimisation between [QCUT,QGAM] = [ 12.38, 25.00] = [ 42.90,175.06] Ry 
 Optimized for a Real-space Cutoff    1.13 Angstroem

   l    n(q)    QCUT    max X(q) W(low)/X(q) W(high)/X(q)  e(spline) 
   0      8    12.378    20.381    0.16E-03    0.54E-05    0.27E-06
   0      8    12.378    15.268    0.17E-03    0.61E-05    0.29E-06
   1      8    12.378     5.964    0.38E-03    0.23E-03    0.28E-06
   1      8    12.378     5.382    0.33E-03    0.20E-03    0.25E-06
  PAW_PBE C 08Apr2002                   :
 energy of atom  1       EATOM= -147.1560
 kinetic energy error for atom=    0.0057 (will be added to EATOM!!)
  PAW_PBE Co 02Aug2007                  :
 energy of atom  2       EATOM= -813.3670
 kinetic energy error for atom=    0.0018 (will be added to EATOM!!)
  PAW_PBE H 15Jun2001                   :
 energy of atom  3       EATOM=  -12.4884
 kinetic energy error for atom=    0.0004 (will be added to EATOM!!)
  PAW_PBE N 08Apr2002                   :
 energy of atom  4       EATOM= -264.5486
 kinetic energy error for atom=    0.0103 (will be added to EATOM!!)
  PAW_PBE O 08Apr2002                   :
 energy of atom  5       EATOM= -432.3788
 kinetic energy error for atom=    0.0168 (will be added to EATOM!!)
 
 
 POSCAR: CoH_exp13
  positions in direct lattice
  velocities in cartesian coordinates
 exchange correlation table for  LEXCH =        8
   RHO(1)=    0.500       N(1)  =     2000
   RHO(2)=  100.500       N(2)  =     4000
 


--------------------------------------------------------------------------------------------------------


 ion  position               nearest neighbor table
   1  0.912  0.969  0.131- 107 1.08 117 1.35  65 1.41
   2  0.923  0.976  0.425- 112 1.08 118 1.35  65 1.41
   3  0.913  0.811  0.922- 116 1.08 119 1.35  66 1.41
   4  0.587  0.469  0.631- 110 1.08 120 1.35  67 1.41
   5  0.577  0.304  0.129- 111 1.08 121 1.35  68 1.41
   6  0.077  0.804  0.129- 115 1.08 122 1.35  69 1.41
   7  0.577  0.476  0.924- 101 1.08 123 1.35  67 1.41
   8  0.587  0.312  0.422- 113 1.08 124 1.35  68 1.41
   9  0.423  0.476  0.424- 114 1.08 125 1.35  70 1.41
  10  0.087  0.812  0.422- 104 1.08 126 1.35  69 1.41
  11  0.077  0.976  0.925- 105 1.08 127 1.35  71 1.41
  12  0.423  0.304  0.629- 102 1.08 128 1.35  72 1.41
  13  0.923  0.804  0.629- 108 1.08 129 1.35  66 1.41
  14  0.088  0.969  0.631- 109 1.08 130 1.35  71 1.41
  15  0.413  0.312  0.922- 106 1.08 131 1.35  72 1.41
  16  0.412  0.469  0.131- 103 1.08 132 1.35  70 1.41
  17  0.818  0.042  0.432- 141 1.23 133 1.42  33 1.49
  18  0.847  0.073  0.124- 142 1.23 133 1.42  34 1.49
  19  0.848  0.707  0.929- 143 1.23 134 1.42  35 1.49
  20  0.653  0.573  0.624- 144 1.23 135 1.42  36 1.49
  21  0.652  0.207  0.429- 145 1.23 136 1.42  37 1.49
  22  0.180  0.738  0.121- 146 1.23 137 1.42  38 1.49
  23  0.681  0.542  0.932- 147 1.23 135 1.42  39 1.49
  24  0.680  0.238  0.121- 148 1.23 136 1.42  40 1.49
  25  0.318  0.542  0.432- 149 1.23 138 1.42  41 1.49
  26  0.152  0.707  0.429- 150 1.23 137 1.42  42 1.49
  27  0.153  0.073  0.624- 151 1.23 139 1.42  43 1.49
  28  0.348  0.207  0.929- 152 1.23 140 1.42  44 1.49
  29  0.820  0.738  0.621- 153 1.23 134 1.42  45 1.49
  30  0.181  0.042  0.932- 154 1.23 139 1.42  46 1.49
  31  0.320  0.238  0.621- 155 1.23 140 1.42  47 1.49
  32  0.347  0.572  0.123- 156 1.23 138 1.42  48 1.49
  33  0.776  0.085  0.428-  49 1.39  73 1.41  17 1.49
  34  0.804  0.115  0.126-  50 1.39  73 1.41  18 1.49
  35  0.805  0.665  0.927-  51 1.39  74 1.41  19 1.49
  36  0.696  0.615  0.626-  52 1.39  75 1.41  20 1.49
  37  0.695  0.165  0.427-  53 1.39  76 1.41  21 1.49
  38  0.223  0.695  0.125-  54 1.39  77 1.41  22 1.49
  39  0.724  0.585  0.928-  55 1.39  75 1.41  23 1.49
  40  0.723  0.195  0.125-  56 1.39  76 1.41  24 1.49
  41  0.276  0.584  0.428-  57 1.39  78 1.41  25 1.49
  42  0.195  0.665  0.427-  58 1.39  77 1.41  26 1.49
  43  0.196  0.115  0.626-  59 1.39  79 1.41  27 1.49
  44  0.305  0.165  0.927-  60 1.39  80 1.41  28 1.49
  45  0.777  0.695  0.625-  61 1.39  74 1.41  29 1.49
  46  0.224  0.085  0.928-  62 1.39  79 1.41  30 1.49
  47  0.277  0.195  0.625-  63 1.39  80 1.41  31 1.49
  48  0.304  0.614  0.126-  64 1.39  78 1.41  32 1.49
  49  0.742  0.091  0.575-  88 1.09  33 1.39  53 1.41
  50  0.797  0.149  0.978-  99 1.09  34 1.39  56 1.41
  51  0.798  0.631  0.074-  93 1.09  35 1.39  55 1.41
  52  0.703  0.649  0.478-  90 1.09  36 1.39  61 1.41
  53  0.702  0.131  0.574-  98 1.09  37 1.39  49 1.41
  54  0.256  0.689  0.978-  96 1.09  38 1.39  64 1.41
  55  0.758  0.590  0.075-  86 1.09  39 1.39  51 1.41
  56  0.757  0.189  0.978-  87 1.09  40 1.39  50 1.41
  57  0.242  0.590  0.575-  95 1.09  41 1.39  58 1.41
  58  0.202  0.630  0.574-  91 1.09  42 1.39  57 1.41
  59  0.203  0.149  0.478-  92 1.09  43 1.39  63 1.41
  60  0.298  0.131  0.074-  85 1.09  44 1.39  62 1.41
  61  0.743  0.689  0.478-  89 1.09  45 1.39  52 1.41
  62  0.258  0.090  0.075- 100 1.09  46 1.39  60 1.41
  63  0.243  0.189  0.478-  94 1.09  47 1.39  59 1.41
  64  0.297  0.649  0.978-  97 1.09  48 1.39  54 1.41
  65  0.893  0.997  0.278-   2 1.41   1 1.41 133 1.43
  66  0.894  0.783  0.775-  13 1.41   3 1.41 134 1.43
  67  0.607  0.497  0.778-   7 1.41   4 1.41 135 1.43
  68  0.606  0.283  0.275-   5 1.41   8 1.41 136 1.43
  69  0.106  0.783  0.275-   6 1.41  10 1.41 137 1.43
  70  0.393  0.497  0.278-   9 1.41  16 1.41 138 1.43
  71  0.107  0.997  0.778-  11 1.41  14 1.41 139 1.43
  72  0.394  0.283  0.775-  12 1.41  15 1.41 140 1.43
  73  0.770  0.120  0.277-  34 1.41  33 1.41  76 1.43
  74  0.771  0.660  0.776-  35 1.41  45 1.41  75 1.43
  75  0.730  0.620  0.777-  36 1.41  39 1.41  74 1.43
  76  0.729  0.160  0.276-  37 1.41  40 1.41  73 1.43
  77  0.229  0.660  0.276-  42 1.41  38 1.41  78 1.43
  78  0.270  0.619  0.277-  48 1.41  41 1.41  77 1.43
  79  0.230  0.120  0.777-  43 1.41  46 1.41  80 1.43
  80  0.271  0.160  0.776-  47 1.41  44 1.41  79 1.43
  81  0.997  0.891  0.027- 127 1.99 122 1.99 117 1.99 119 1.99
  82  0.003  0.891  0.527- 118 1.99 129 1.99 130 1.99 126 1.99
  83  0.503  0.391  0.526- 125 1.99 128 1.99 120 1.99 124 1.99
  84  0.497  0.391  0.026- 123 1.99 121 1.99 132 1.99 131 1.99
  85  0.325  0.135  0.190-  60 1.09
  86  0.752  0.563  0.190-  55 1.09
  87  0.751  0.217  0.862-  56 1.09
  88  0.748  0.063  0.691-  49 1.09
  89  0.749  0.717  0.362-  61 1.09
  90  0.677  0.645  0.363-  52 1.09
  91  0.175  0.635  0.689-  58 1.09
  92  0.176  0.145  0.363-  59 1.09
  93  0.825  0.635  0.189-  51 1.09
  94  0.249  0.217  0.362-  63 1.09
  95  0.247  0.563  0.690-  57 1.09
  96  0.251  0.716  0.862-  54 1.09
  97  0.323  0.645  0.863-  64 1.09
  98  0.675  0.135  0.689-  53 1.09
  99  0.823  0.145  0.863-  50 1.09
 100  0.252  0.063  0.191-  62 1.09
 101  0.580  0.486  0.064-   7 1.08
 102  0.421  0.295  0.489-  12 1.08
 103  0.401  0.473  0.991-  16 1.08
 104  0.098  0.808  0.562-  10 1.08
 105  0.080  0.986  0.065-  11 1.08
 106  0.402  0.308  0.062-  15 1.08
 107  0.901  0.973  0.991-   1 1.08
 108  0.921  0.795  0.489-  13 1.08
 109  0.099  0.973  0.492-  14 1.08
 110  0.599  0.473  0.491-   4 1.08
 111  0.579  0.295  0.989-   5 1.08
 112  0.920  0.986  0.565-   2 1.08
 113  0.598  0.308  0.562-   8 1.08
 114  0.420  0.486  0.564-   9 1.08
 115  0.079  0.795  0.989-   6 1.08
 116  0.902  0.808  0.062-   3 1.08
 117  0.951  0.934  0.187-   1 1.35 118 1.38  81 1.99
 118  0.957  0.938  0.369-   2 1.35 117 1.38  82 1.99
 119  0.951  0.847  0.867-   3 1.35 129 1.38  81 1.99
 120  0.549  0.434  0.686-   4 1.35 123 1.38  83 1.99
 121  0.542  0.343  0.185-   5 1.35 124 1.38  84 1.99
 122  0.042  0.843  0.185-   6 1.35 126 1.38  81 1.99
 123  0.543  0.438  0.868-   7 1.35 120 1.38  84 1.99
 124  0.549  0.347  0.366-   8 1.35 121 1.38  83 1.99
 125  0.457  0.438  0.368-   9 1.35 132 1.38  83 1.99
 126  0.049  0.847  0.367-  10 1.35 122 1.38  82 1.99
 127  0.043  0.938  0.869-  11 1.35 130 1.38  81 1.99
 128  0.458  0.343  0.685-  12 1.35 131 1.38  83 1.99
 129  0.958  0.843  0.685-  13 1.35 119 1.38  82 1.99
 130  0.049  0.934  0.687-  14 1.35 127 1.38  82 1.99
 131  0.451  0.347  0.866-  15 1.35 128 1.38  84 1.99
 132  0.451  0.434  0.186-  16 1.35 125 1.38  84 1.99
 133  0.852  0.038  0.278-  18 1.42  17 1.42  65 1.43
 134  0.853  0.742  0.775-  29 1.42  19 1.42  66 1.43
 135  0.648  0.538  0.778-  20 1.42  23 1.42  67 1.43
 136  0.647  0.242  0.275-  21 1.42  24 1.42  68 1.43
 137  0.147  0.742  0.275-  22 1.42  26 1.42  69 1.43
 138  0.352  0.538  0.277-  32 1.42  25 1.42  70 1.43
 139  0.148  0.038  0.778-  27 1.42  30 1.42  71 1.43
 140  0.353  0.242  0.775-  28 1.42  31 1.42  72 1.43
 141  0.824  0.011  0.563-  17 1.23
 142  0.877  0.068  0.994-  18 1.23
 143  0.878  0.712  0.059-  19 1.23
 144  0.623  0.568  0.494-  20 1.23
 145  0.622  0.212  0.559-  21 1.23
 146  0.174  0.769  0.990-  22 1.23
 147  0.675  0.511  0.062-  23 1.23
 148  0.675  0.269  0.990-  24 1.23
 149  0.324  0.511  0.562-  25 1.23
 150  0.122  0.712  0.559-  26 1.23
 151  0.123  0.068  0.494-  27 1.23
 152  0.378  0.212  0.058-  28 1.23
 153  0.826  0.769  0.490-  29 1.23
 154  0.175  0.011  0.063-  30 1.23
 155  0.325  0.269  0.490-  31 1.23
 156  0.377  0.568  0.994-  32 1.23
 

IMPORTANT INFORMATION: All symmetrisations will be switched off!
NOSYMM: (Re-)initialisation of all symmetry stuff for point group C_1.


----------------------------------------------------------------------------------------

                                     Primitive cell                                     

  volume of cell :    4575.0482

  direct lattice vectors                    reciprocal lattice vectors
    24.608648627 -0.000966810  0.002015610     0.040636121  0.000000481 -0.000006377
    -0.000035754 24.797974348  1.643283052     0.000001468  0.040234704  0.001375814
     0.001176907 -0.255780729  7.480122705    -0.000011272 -0.008839027  0.133385400

  length of vectors
    24.608648729 24.852362281  7.484494696     0.040636121  0.040258220  0.133677947

  position of ions in fractional coordinates (direct lattice)
     0.912395701  0.968960863  0.131325261
     0.922650955  0.976077172  0.424751000
     0.912860651  0.811494199  0.922302675
     0.587493740  0.469044559  0.630802564
     0.576636839  0.304438784  0.128621984
     0.076610892  0.804437603  0.128968114
     0.577296466  0.476013268  0.924298462
     0.587075781  0.311572555  0.421952132
     0.422520653  0.475995423  0.424191861
     0.087083851  0.811532095  0.422308259
     0.077269768  0.976040550  0.924797120
     0.423289029  0.304442984  0.628626584
     0.923332087  0.804450804  0.628927584
     0.087528031  0.968985022  0.631346578
     0.412874086  0.311516979  0.922011403
     0.412176727  0.468784286  0.130831893
     0.818454776  0.041926087  0.431984483
     0.847053798  0.072669709  0.123813312
     0.848081124  0.707355259  0.929124414
     0.652910413  0.572696359  0.623588778
     0.651845681  0.207391890  0.429065238
     0.180363613  0.738009967  0.120942770
     0.681464903  0.541880374  0.931715519
     0.680430354  0.238063412  0.120862493
     0.318194899  0.541674394  0.431525683
     0.151808564  0.707345206  0.429172248
     0.152890524  0.072667358  0.623911386
     0.348091886  0.207363465  0.929078185
     0.819538044  0.738074895  0.620947658
     0.181454782  0.041918951  0.932034453
     0.319522046  0.238050655  0.620928139
     0.346775503  0.572425157  0.123324958
     0.776181730  0.084717277  0.428178903
     0.803918329  0.114546579  0.126088567
     0.804999992  0.665388197  0.926762076
     0.696050319  0.614558242  0.625949334
     0.694933450  0.165431543  0.426776953
     0.222529382  0.695112009  0.124591662
     0.723749306  0.584664999  0.927985230
     0.722636323  0.195203401  0.124616388
     0.275951862  0.584498343  0.427818299
     0.194820773  0.665318299  0.426712563
     0.196028802  0.114539966  0.626152925
     0.304996405  0.165408035  0.926824713
     0.777322923  0.695227681  0.624653338
     0.223741415  0.084697029  0.928189921
     0.277294688  0.195214514  0.624717776
     0.303715161  0.614370584  0.125796572
     0.742250166  0.090527822  0.575088993
     0.796930265  0.149306952  0.978399089
     0.798040103  0.630540907  0.074295820
     0.703063686  0.649345863  0.478333302
     0.701877792  0.130623453  0.574404290
     0.256413818  0.689280255  0.977593376
     0.757673592  0.590441991  0.074874560
     0.756536535  0.189365083  0.977652846
     0.242057242  0.590338684  0.574807474
     0.201739381  0.630482918  0.574273837
     0.203016243  0.149319768  0.478487771
     0.298051299  0.130580951  0.074408401
     0.743451416  0.689413203  0.477665081
     0.257668426  0.090492479  0.075074184
     0.243412601  0.189382628  0.477748456
     0.296777625  0.649190582  0.978235702
     0.892908266  0.997098349  0.278208841
     0.893653765  0.783218337  0.775323231
     0.607030258  0.497096340  0.777782939
     0.606293289  0.283245059  0.275089805
     0.106281829  0.783225531  0.275364859
     0.392686251  0.496916213  0.277716788
     0.107014119  0.997092375  0.778263262
     0.393648798  0.283216980  0.775119063
     0.769880529  0.119645754  0.276781232
     0.770984164  0.660288145  0.776046787
     0.730064712  0.619626311  0.776658789
     0.728960960  0.160296277  0.276073838
     0.228826161  0.660167192  0.275956990
     0.269684492  0.619463235  0.276509214
     0.230057966  0.119636000  0.776817508
     0.270967415  0.160295872  0.776144449
     0.997236711  0.890529150  0.026846874
     0.002690097  0.890571936  0.526849927
     0.502631322  0.390566796  0.526239820
     0.497250228  0.390530972  0.026352046
     0.324596638  0.135131691  0.189501448
     0.752193702  0.563180759  0.190407377
     0.751044945  0.216543983  0.861908707
     0.747712724  0.063285003  0.690688936
     0.748960657  0.716609693  0.361957908
     0.676539296  0.644795162  0.363219777
     0.175234237  0.635095790  0.689470359
     0.176478644  0.144763798  0.363380511
     0.824566934  0.635090482  0.189412844
     0.248913009  0.216580743  0.362037504
     0.247493184  0.563070906  0.690353333
     0.250951292  0.716492127  0.861915276
     0.323333112  0.644632349  0.863146023
     0.675330479  0.135197991  0.689495316
     0.823479972  0.144745043  0.863296113
     0.252186809  0.063240186  0.190647241
     0.579748446  0.485562319  0.064204053
     0.421033322  0.294755442  0.488817553
     0.401029106  0.472604770  0.991049121
     0.098177586  0.807569124  0.562114287
     0.079702727  0.985633811  0.064674026
     0.401803824  0.307552526  0.061867460
     0.901316357  0.972856458  0.991499318
     0.921112314  0.794784527  0.489085556
     0.098615112  0.972900235  0.491527270
     0.598546428  0.473007135  0.490955106
     0.578874971  0.294699876  0.988844197
     0.920229441  0.985709887  0.564598233
     0.598162730  0.307624383  0.561772966
     0.420136425  0.485660971  0.564028067
     0.078826653  0.794737520  0.989141558
     0.901768474  0.807513074  0.062125389
     0.951005599  0.933709368  0.186935174
     0.957407231  0.938149201  0.368560573
     0.951214854  0.847054297  0.866799561
     0.548868470  0.433786478  0.686326700
     0.542226983  0.342673441  0.184765560
     0.042207371  0.842660625  0.185228750
     0.542507503  0.438134760  0.868018985
     0.548736378  0.347127419  0.366319431
     0.457329742  0.438120284  0.367965746
     0.048741401  0.847095573  0.366781530
     0.042513613  0.938123323  0.868568260
     0.457704532  0.342666218  0.684784366
     0.957739453  0.842658652  0.685228955
     0.048915215  0.933723272  0.686924574
     0.451212571  0.347078396  0.866366394
     0.450882013  0.433626498  0.186386478
     0.852023489  0.037921729  0.277957318
     0.852980952  0.742185097  0.775152700
     0.647927748  0.537910510  0.777642871
     0.646956618  0.242200345  0.275050974
     0.146916821  0.742158137  0.275166056
     0.351772930  0.537698369  0.277495058
     0.147900698  0.037914539  0.778030984
     0.352981396  0.242181220  0.775101356
     0.824423017  0.011301042  0.562515606
     0.877154611  0.068028563  0.994304611
     0.878171473  0.712037391  0.058576710
     0.622803586  0.568099226  0.494127243
     0.621742989  0.212078186  0.558525203
     0.174448226  0.768633282  0.990374264
     0.675466928  0.511230879  0.062188339
     0.674503581  0.268667493  0.990255732
     0.324126335  0.510994807  0.561935853
     0.121758789  0.712076803  0.558758812
     0.122795380  0.068036069  0.494434336
     0.378207906  0.212034601  0.058470706
     0.825505929  0.768691965  0.490380472
     0.175470455  0.011299036  0.062579163
     0.325486378  0.268637477  0.490286997
     0.376794247  0.567732096  0.993641218

  ion indices of the primitive-cell ions
   primitive index   ion index
                 1           1
                 2           2
                 3           3
                 4           4
                 5           5
                 6           6
                 7           7
                 8           8
                 9           9
                10          10
                11          11
                12          12
                13          13
                14          14
                15          15
                16          16
                17          17
                18          18
                19          19
                20          20
                21          21
                22          22
                23          23
                24          24
                25          25
                26          26
                27          27
                28          28
                29          29
                30          30
                31          31
                32          32
                33          33
                34          34
                35          35
                36          36
                37          37
                38          38
                39          39
                40          40
                41          41
                42          42
                43          43
                44          44
                45          45
                46          46
                47          47
                48          48
                49          49
                50          50
                51          51
                52          52
                53          53
                54          54
                55          55
                56          56
                57          57
                58          58
                59          59
                60          60
                61          61
                62          62
                63          63
                64          64
                65          65
                66          66
                67          67
                68          68
                69          69
                70          70
                71          71
                72          72
                73          73
                74          74
                75          75
                76          76
                77          77
                78          78
                79          79
                80          80
                81          81
                82          82
                83          83
                84          84
                85          85
                86          86
                87          87
                88          88
                89          89
                90          90
                91          91
                92          92
                93          93
                94          94
                95          95
                96          96
                97          97
                98          98
                99          99
               100         100
               101         101
               102         102
               103         103
               104         104
               105         105
               106         106
               107         107
               108         108
               109         109
               110         110
               111         111
               112         112
               113         113
               114         114
               115         115
               116         116
               117         117
               118         118
               119         119
               120         120
               121         121
               122         122
               123         123
               124         124
               125         125
               126         126
               127         127
               128         128
               129         129
               130         130
               131         131
               132         132
               133         133
               134         134
               135         135
               136         136
               137         137
               138         138
               139         139
               140         140
               141         141
               142         142
               143         143
               144         144
               145         145
               146         146
               147         147
               148         148
               149         149
               150         150
               151         151
               152         152
               153         153
               154         154
               155         155
               156         156

----------------------------------------------------------------------------------------

 
 

Automatic generation of k-mesh.
 generate k-points for:    1    1    3
Space group operators:
 irot       det(A)        alpha          n_x          n_y          n_z        tau_x        tau_y        tau_z
    1     1.000000     0.000001     1.000000     0.000000     0.000000     0.000000     0.000000     0.000000
 
 Subroutine IBZKPT returns following result:
 ===========================================
 
 Found      2 irreducible k-points:
 
 Following reciprocal coordinates:
            Coordinates               Weight
  0.000000  0.000000  0.000000      1.000000
  0.000000 -0.000000  0.333333      2.000000
 
 Following cartesian coordinates:
            Coordinates               Weight
  0.000000  0.000000  0.000000      1.000000
 -0.000004 -0.002946  0.044462      2.000000
 


--------------------------------------------------------------------------------------------------------




 Dimension of arrays:
   k-points           NKPTS =      2   k-points in BZ     NKDIM =      2   number of bands    NBANDS=    384
   number of dos      NEDOS =    301   number of ions     NIONS =    156
   non local maximal  LDIM  =      6   non local SUM 2l+1 LMDIM =     18
   total plane-waves  NPLWV = ******
   max r-space proj   IRMAX =   2256   max aug-charges    IRDMAX=   9508
   dimension x,y,z NGX =   150 NGY =  150 NGZ =   48
   dimension x,y,z NGXF=   300 NGYF=  300 NGZF=   96
   support grid    NGXF=   300 NGYF=  300 NGZF=   96
   ions per type =              80   4  32  24  16
   NGX,Y,Z   is equivalent  to a cutoff of  10.13, 10.03, 10.66 a.u.
   NGXF,Y,Z  is equivalent  to a cutoff of  20.27, 20.07, 21.32 a.u.

 SYSTEM =  flex_MOF                                
 POSCAR =  CoH_exp13                               

 Startparameter for this run:
   NWRITE =      2    write-flag & timer
   PREC   = normal    normal or accurate (medium, high low for compatibility)
   ISTART =      0    job   : 0-new  1-cont  2-samecut
   ICHARG =      2    charge: 1-file 2-atom 10-const
   ISPIN  =      2    spin polarized calculation?
   LNONCOLLINEAR =      F non collinear calculations
   LSORBIT =      F    spin-orbit coupling
   INIWAV =      1    electr: 0-lowe 1-rand  2-diag
   LASPH  =      F    aspherical Exc in radial PAW
   METAGGA=      F    non-selfconsistent MetaGGA calc.

 Electronic Relaxation 1
   ENCUT  =  600.0 eV  44.10 Ry    6.64 a.u.  49.15 49.64 14.95*2*pi/ulx,y,z
   ENINI  =  600.0     initial cutoff
   ENAUG  =  644.9 eV  augmentation charge cutoff
   NELM   =     80;   NELMIN=  8; NELMDL= -5     # of ELM steps 
   EDIFF  = 0.1E-05   stopping-criterion for ELM
   LREAL  =      T    real-space projection
   NLSPLINE    = F    spline interpolate recip. space projectors
   LCOMPAT=      F    compatible to vasp.4.4
   GGA_COMPAT  = T    GGA compatible to vasp.4.4-vasp.4.6
   LMAXPAW     = -100 max onsite density
   LMAXMIX     =    2 max onsite mixed and CHGCAR
   VOSKOWN=      0    Vosko Wilk Nusair interpolation
   ROPT   =   -0.00050  -0.00050  -0.00050  -0.00050
   ROPT   =   -0.00050
 Ionic relaxation
   EDIFFG = -.1E-01   stopping-criterion for IOM
   NSW    =    500    number of steps for IOM
   NBLOCK =      1;   KBLOCK =    500    inner block; outer block 
   IBRION =      2    ionic relax: 0-MD 1-quasi-New 2-CG
   NFREE  =      1    steps in history (QN), initial steepest desc. (CG)
   ISIF   =      4    stress and relaxation
   IWAVPR =     11    prediction:  0-non 1-charg 2-wave 3-comb
   ISYM   =      0    0-nonsym 1-usesym 2-fastsym
   LCORR  =      T    Harris-Foulkes like correction to forces

   POTIM  = 0.5000    time-step for ionic-motion
   TEIN   =    0.0    initial temperature
   TEBEG  =    0.0;   TEEND  =   0.0 temperature during run
   SMASS  =  -3.00    Nose mass-parameter (am)
   estimated Nose-frequenzy (Omega)   =  0.10E-29 period in steps = 0.13E+47 mass=  -0.138E-25a.u.
   SCALEE = 1.0000    scale energy and forces
   NPACO  =    256;   APACO  = 16.0  distance and # of slots for P.C.
   PSTRESS=    0.0 pullay stress

  Mass of Ions in am
   POMASS =  12.01 58.93  1.00 14.00 16.00
  Ionic Valenz
   ZVAL   =   4.00  9.00  1.00  5.00  6.00
  Atomic Wigner-Seitz radii
   RWIGS  =  -1.00 -1.00 -1.00 -1.00 -1.00
  virtual crystal weights 
   VCA    =   1.00  1.00  1.00  1.00  1.00
   NELECT =     604.0000    total number of electrons
   NUPDOWN=      -1.0000    fix difference up-down

 DOS related values:
   EMIN   =  10.00;   EMAX   =-10.00  energy-range for DOS
   EFERMI =   0.00
   ISMEAR =     0;   SIGMA  =   0.05  broadening in eV -4-tet -1-fermi 0-gaus

 Electronic relaxation 2 (details)
   IALGO  =     38    algorithm
   LDIAG  =      T    sub-space diagonalisation (order eigenvalues)
   LSUBROT=      F    optimize rotation matrix (better conditioning)
   TURBO    =      0    0=normal 1=particle mesh
   IRESTART =      0    0=no restart 2=restart with 2 vectors
   NREBOOT  =      0    no. of reboots
   NMIN     =      0    reboot dimension
   EREF     =   0.00    reference energy to select bands
   IMIX   =      4    mixing-type and parameters
     AMIX     =   0.40;   BMIX     =  1.00
     AMIX_MAG =   1.60;   BMIX_MAG =  1.00
     AMIN     =   0.10
     WC   =   100.;   INIMIX=   1;  MIXPRE=   1;  MAXMIX= -45

 Intra band minimization:
   WEIMIN = 0.0010     energy-eigenvalue tresh-hold
   EBREAK =  0.65E-09  absolut break condition
   DEPER  =   0.30     relativ break condition  

   TIME   =   0.40     timestep for ELM

  volume/ion in A,a.u.               =      29.33       197.91
  Fermi-wavevector in a.u.,A,eV,Ry     =   0.833595  1.575267  9.454431  0.694881
  Thomas-Fermi vector in A             =   1.946846
 
 Write flags
   LWAVE        =      T    write WAVECAR
   LDOWNSAMPLE  =      F    k-point downsampling of WAVECAR
   LCHARG       =      T    write CHGCAR
   LVTOT        =      F    write LOCPOT, total local potential
   LVHAR        =      F    write LOCPOT, Hartree potential only
   LELF         =      F    write electronic localiz. function (ELF)
   LORBIT       =     11    0 simple, 1 ext, 2 COOP (PROOUT), +10 PAW based schemes


 Dipole corrections
   LMONO  =      F    monopole corrections only (constant potential shift)
   LDIPOL =      F    correct potential (dipole corrections)
   IDIPOL =      0    1-x, 2-y, 3-z, 4-all directions 
   EPSILON=  1.0000000 bulk dielectric constant

 Exchange correlation treatment:
   GGA     =    PE    GGA type
   LEXCH   =     8    internal setting for exchange type
   VOSKOWN=      0    Vosko Wilk Nusair interpolation
   LHFCALC =     F    Hartree Fock is set to
   LHFONE  =     F    Hartree Fock one center treatment
   AEXX    =    0.0000 exact exchange contribution

 Linear response parameters
   LEPSILON=     F    determine dielectric tensor
   LRPA    =     F    only Hartree local field effects (RPA)
   LNABLA  =     F    use nabla operator in PAW spheres
   LVEL    =     F    velocity operator in full k-point grid
   LINTERFAST=   F  fast interpolation
   KINTER  =     0    interpolate to denser k-point grid
   CSHIFT  =0.1000    complex shift for real part using Kramers Kronig
   OMEGAMAX=  -1.0    maximum frequency
   DEG_THRESHOLD= 0.2000000E-02 threshold for treating states as degnerate
   RTIME   =   -0.100 relaxation time in fs
  (WPLASMAI=    0.000 imaginary part of plasma frequency in eV, 0.658/RTIME)
   DFIELD  = 0.0000000 0.0000000 0.0000000 field for delta impulse in time
 
 Orbital magnetization related:
   ORBITALMAG=     F  switch on orbital magnetization
   LCHIMAG   =     F  perturbation theory with respect to B field
   DQ        =  0.001000  dq finite difference perturbation B field
   LLRAUG    =     F  two centre corrections for induced B field



--------------------------------------------------------------------------------------------------------


 conjugate gradient relaxation of ions
 charge density and potential will be updated during run
 spin polarized calculation
 Variant of blocked Davidson
 Davidson routine will perform the subspace rotation
 perform sub-space diagonalisation
    after iterative eigenvector-optimisation
 modified Broyden-mixing scheme, WC =      100.0
 initial mixing is a Kerker type mixing with AMIX =  0.4000 and BMIX =      1.0000
 Hartree-type preconditioning will be used
 using additional bands           82
 real space projection scheme for non local part
 use partial core corrections
 calculate Harris-corrections to forces 
   (improved forces if not selfconsistent)
 use gradient corrections 
 use of overlap-Matrix (Vanderbilt PP)
 Gauss-broadening in eV      SIGMA  =   0.05


--------------------------------------------------------------------------------------------------------


  energy-cutoff  :      600.00
  volume of cell :     4575.05
      direct lattice vectors                 reciprocal lattice vectors
    24.608648627 -0.000966810  0.002015610     0.040636121  0.000000481 -0.000006377
    -0.000035754 24.797974348  1.643283052     0.000001468  0.040234704  0.001375814
     0.001176907 -0.255780729  7.480122705    -0.000011272 -0.008839027  0.133385400

  length of vectors
    24.608648729 24.852362281  7.484494696     0.040636121  0.040258220  0.133677947


 
 k-points in units of 2pi/SCALE and weight: read from INCAR                         
   0.00000000  0.00000000  0.00000000       0.333
  -0.00000376 -0.00294634  0.04446180       0.667
 
 k-points in reciprocal lattice and weights: read from INCAR                         
   0.00000000  0.00000000  0.00000000       0.333
   0.00000000 -0.00000000  0.33333333       0.667
 
 position of ions in fractional coordinates (direct lattice) 
   0.91239570  0.96896086  0.13132526
   0.92265095  0.97607717  0.42475100
   0.91286065  0.81149420  0.92230268
   0.58749374  0.46904456  0.63080256
   0.57663684  0.30443878  0.12862198
   0.07661089  0.80443760  0.12896811
   0.57729647  0.47601327  0.92429846
   0.58707578  0.31157255  0.42195213
   0.42252065  0.47599542  0.42419186
   0.08708385  0.81153210  0.42230826
   0.07726977  0.97604055  0.92479712
   0.42328903  0.30444298  0.62862658
   0.92333209  0.80445080  0.62892758
   0.08752803  0.96898502  0.63134658
   0.41287409  0.31151698  0.92201140
   0.41217673  0.46878429  0.13083189
   0.81845478  0.04192609  0.43198448
   0.84705380  0.07266971  0.12381331
   0.84808112  0.70735526  0.92912441
   0.65291041  0.57269636  0.62358878
   0.65184568  0.20739189  0.42906524
   0.18036361  0.73800997  0.12094277
   0.68146490  0.54188037  0.93171552
   0.68043035  0.23806341  0.12086249
   0.31819490  0.54167439  0.43152568
   0.15180856  0.70734521  0.42917225
   0.15289052  0.07266736  0.62391139
   0.34809189  0.20736346  0.92907818
   0.81953804  0.73807489  0.62094766
   0.18145478  0.04191895  0.93203445
   0.31952205  0.23805066  0.62092814
   0.34677550  0.57242516  0.12332496
   0.77618173  0.08471728  0.42817890
   0.80391833  0.11454658  0.12608857
   0.80499999  0.66538820  0.92676208
   0.69605032  0.61455824  0.62594933
   0.69493345  0.16543154  0.42677695
   0.22252938  0.69511201  0.12459166
   0.72374931  0.58466500  0.92798523
   0.72263632  0.19520340  0.12461639
   0.27595186  0.58449834  0.42781830
   0.19482077  0.66531830  0.42671256
   0.19602880  0.11453997  0.62615292
   0.30499640  0.16540803  0.92682471
   0.77732292  0.69522768  0.62465334
   0.22374142  0.08469703  0.92818992
   0.27729469  0.19521451  0.62471778
   0.30371516  0.61437058  0.12579657
   0.74225017  0.09052782  0.57508899
   0.79693026  0.14930695  0.97839909
   0.79804010  0.63054091  0.07429582
   0.70306369  0.64934586  0.47833330
   0.70187779  0.13062345  0.57440429
   0.25641382  0.68928026  0.97759338
   0.75767359  0.59044199  0.07487456
   0.75653653  0.18936508  0.97765285
   0.24205724  0.59033868  0.57480747
   0.20173938  0.63048292  0.57427384
   0.20301624  0.14931977  0.47848777
   0.29805130  0.13058095  0.07440840
   0.74345142  0.68941320  0.47766508
   0.25766843  0.09049248  0.07507418
   0.24341260  0.18938263  0.47774846
   0.29677763  0.64919058  0.97823570
   0.89290827  0.99709835  0.27820884
   0.89365377  0.78321834  0.77532323
   0.60703026  0.49709634  0.77778294
   0.60629329  0.28324506  0.27508980
   0.10628183  0.78322553  0.27536486
   0.39268625  0.49691621  0.27771679
   0.10701412  0.99709238  0.77826326
   0.39364880  0.28321698  0.77511906
   0.76988053  0.11964575  0.27678123
   0.77098416  0.66028815  0.77604679
   0.73006471  0.61962631  0.77665879
   0.72896096  0.16029628  0.27607384
   0.22882616  0.66016719  0.27595699
   0.26968449  0.61946324  0.27650921
   0.23005797  0.11963600  0.77681751
   0.27096742  0.16029587  0.77614445
   0.99723671  0.89052915  0.02684687
   0.00269010  0.89057194  0.52684993
   0.50263132  0.39056680  0.52623982
   0.49725023  0.39053097  0.02635205
   0.32459664  0.13513169  0.18950145
   0.75219370  0.56318076  0.19040738
   0.75104494  0.21654398  0.86190871
   0.74771272  0.06328500  0.69068894
   0.74896066  0.71660969  0.36195791
   0.67653930  0.64479516  0.36321978
   0.17523424  0.63509579  0.68947036
   0.17647864  0.14476380  0.36338051
   0.82456693  0.63509048  0.18941284
   0.24891301  0.21658074  0.36203750
   0.24749318  0.56307091  0.69035333
   0.25095129  0.71649213  0.86191528
   0.32333311  0.64463235  0.86314602
   0.67533048  0.13519799  0.68949532
   0.82347997  0.14474504  0.86329611
   0.25218681  0.06324019  0.19064724
   0.57974845  0.48556232  0.06420405
   0.42103332  0.29475544  0.48881755
   0.40102911  0.47260477  0.99104912
   0.09817759  0.80756912  0.56211429
   0.07970273  0.98563381  0.06467403
   0.40180382  0.30755253  0.06186746
   0.90131636  0.97285646  0.99149932
   0.92111231  0.79478453  0.48908556
   0.09861511  0.97290023  0.49152727
   0.59854643  0.47300713  0.49095511
   0.57887497  0.29469988  0.98884420
   0.92022944  0.98570989  0.56459823
   0.59816273  0.30762438  0.56177297
   0.42013642  0.48566097  0.56402807
   0.07882665  0.79473752  0.98914156
   0.90176847  0.80751307  0.06212539
   0.95100560  0.93370937  0.18693517
   0.95740723  0.93814920  0.36856057
   0.95121485  0.84705430  0.86679956
   0.54886847  0.43378648  0.68632670
   0.54222698  0.34267344  0.18476556
   0.04220737  0.84266063  0.18522875
   0.54250750  0.43813476  0.86801899
   0.54873638  0.34712742  0.36631943
   0.45732974  0.43812028  0.36796575
   0.04874140  0.84709557  0.36678153
   0.04251361  0.93812332  0.86856826
   0.45770453  0.34266622  0.68478437
   0.95773945  0.84265865  0.68522896
   0.04891522  0.93372327  0.68692457
   0.45121257  0.34707840  0.86636639
   0.45088201  0.43362650  0.18638648
   0.85202349  0.03792173  0.27795732
   0.85298095  0.74218510  0.77515270
   0.64792775  0.53791051  0.77764287
   0.64695662  0.24220035  0.27505097
   0.14691682  0.74215814  0.27516606
   0.35177293  0.53769837  0.27749506
   0.14790070  0.03791454  0.77803098
   0.35298140  0.24218122  0.77510136
   0.82442302  0.01130104  0.56251561
   0.87715461  0.06802856  0.99430461
   0.87817147  0.71203739  0.05857671
   0.62280359  0.56809923  0.49412724
   0.62174299  0.21207819  0.55852520
   0.17444823  0.76863328  0.99037426
   0.67546693  0.51123088  0.06218834
   0.67450358  0.26866749  0.99025573
   0.32412633  0.51099481  0.56193585
   0.12175879  0.71207680  0.55875881
   0.12279538  0.06803607  0.49443434
   0.37820791  0.21203460  0.05847071
   0.82550593  0.76869197  0.49038047
   0.17547045  0.01129904  0.06257916
   0.32548638  0.26863748  0.49028700
   0.37679425  0.56773210  0.99364122
 
 position of ions in cartesian coordinates  (Angst):
  22.45294513 23.99379404  2.57644507
  22.70565814 24.09520151  4.78302038
  22.46532346 19.88662252  8.23429182
  14.45815264 11.46943980  5.49043772
  14.19039386  7.51600864  1.46354960
   1.88541356 19.91536142  2.28677041
  14.20755667 11.56718893  7.69725405
  14.44762708  7.61787340  3.66943894
  10.39814451 11.69481368  3.95605402
   2.14348390 20.01624957  4.49267007
   1.90255807 23.96720853  8.52166257
  10.41729993  7.38836951  5.20334317
  22.72266632 19.78699016  6.02825695
   2.15465494 23.86729481  6.31504296
  10.16134729  7.48875814  7.40950120
  10.14324947 11.59103792  1.74981467
  20.14157292  0.92839743  3.30184306
  20.84499240  1.76957358  1.04726300
  20.87119858 17.30250552  8.11405894
  16.06795637 14.04157638  5.60693881
  16.04153887  5.03252195  3.55157807
   4.43862072 18.27004303  2.11778958
  16.77100752 13.19856190  7.86118281
  16.74460522  5.87191824  1.29664333
   7.83083497 13.32174414  4.11863077
   3.73628341 17.43080750  4.37293545
   3.76316087  1.64227094  4.78665493
   8.56715694  4.90421704  7.29107731
  20.16842816 18.14314352  5.85928251
   4.46645238  0.80093318  7.04098252
   7.86372803  5.74404367  5.03644731
   8.53380118 14.16310496  1.86384134
  19.10128437  1.99054652  3.34360968
  19.78348799  2.80749485  1.13301079
  19.81102887 16.26245327  8.02733776
  17.12957245 15.07902079  5.69347394
  17.10186946  3.99253398  3.46559554
   5.47626915 17.20528647  2.07467523
  17.81156360 14.26044718  7.90367227
  17.78324304  4.80807581  1.25437686
   6.79128502 14.38468045  4.16118581
   4.79475437 16.38921292  4.28556130
   4.82473673  2.68001176  4.87231741
   7.50663422  3.86442543  7.20518955
  19.12957697 17.07971238  5.81650626
   5.50706324  1.86268533  7.08260667
   6.82457579  4.68086565  4.99431724
   7.47414576 15.20267600  1.95117073
  18.26644713  2.09709230  4.45199516
  19.61252301  3.45148385  7.56550512
  19.63875338 15.61636224  1.59350758
  17.30198694 15.97943389  4.64646795
  17.27293531  3.09159692  4.51268059
   6.31112344 16.84245663  8.44571780
  18.64539021 14.62188136  1.53186139
  18.61848559  4.44507429  7.62566857
   5.95735700 14.49194484  5.27021188
   4.96518687 15.48761600  5.33210729
   4.99651319  3.58024356  3.82493109
   7.33472258  3.21882268  0.77176619
  18.29587219 16.97315462  4.70739296
   6.34095687  2.22457853  0.71078822
   5.99061066  4.57387138  3.88531696
   7.30442438 15.84811064  8.38472516
  21.97355755 24.65399555  3.72135084
  21.99249598 19.22305150  7.08836358
  14.93909192 12.12745351  6.63600535
  14.92037214  6.95295487  2.52437935
   2.61574825 19.35187084  3.34703840
   9.66378706 12.25110125  2.89472114
   2.63435315 24.52670294  7.46022540
   9.68806706  6.82456629  6.26418481
  18.94604089  2.89543270  2.26852120
  18.97376813 16.17456528  6.89151951
  17.96679787 15.16611718  6.82919598
  17.93906331  3.90370383  2.32994764
   5.63140376 16.30000338  3.14949493
   6.63687418 15.29044696  3.08681987
   5.66232561  2.76781308  6.00774980
   6.66904964  3.77622816  6.06961337
  24.54064759 22.07548798  1.66621941
   0.06678787 21.94961937  5.40436929
  12.36968297  9.55017744  4.57916333
  12.23667318  9.67715594  0.83987173
   7.98810281  3.30220757  1.64020796
  18.51067446 13.91631224  2.35125207
  18.48320780  5.14866639  6.80453976
  18.40101032  1.39195206  5.27194026
  18.43131001 17.67716283  3.88659174
  16.64912223 15.89605519  3.77787310
   4.31306649 15.57256645  6.20131824
   4.34332342  3.49673259  2.95637442
  20.29167815 15.69971214  2.46212675
   6.12583111  5.27792085  3.06449013
   6.09126516 13.78619952  6.08971137
   6.17656094 17.54684944  7.62513722
   7.95778375 15.76448772  7.51640329
  16.61977711  3.17562378  5.38103934
  20.26574013  3.36777319  6.69707775
   6.20619868  1.51922079  1.53049459
  14.26688400 12.02397927  1.27933907
  10.36162583  7.18390072  4.14163054
   9.86993383 11.46576198  8.19060076
   2.41665039 19.88220550  5.53194638
   1.96141727 24.42510254  2.10360564
   9.88791094  7.61046667  0.96898193
  22.18130965 23.87039167  9.01703179
  22.66787648 19.58305711  4.96633252
   2.42732833 24.00013652  5.27563353
  14.72997963 11.60346325  4.45089548
  14.24648401  7.05447301  7.88211803
  22.64623220 24.29830546  5.84491924
  14.72062659  7.48419254  4.70885032
  10.33963610 11.89873461  5.01792442
   1.94095312 19.45480107  8.70503781
  22.19134778 20.00792619  1.79349570
  23.40314925 23.10536709  2.93456367
  23.56089836 23.16900351  4.30045276
  23.40910196 20.78260047  7.87763433
  13.50770355 10.58094616  5.84774820
  13.34367850  8.44982349  1.94627143
   1.03885424 20.84885782  2.77034878
  13.35138244 10.64230751  7.21396143
  13.50407942  8.51382887  3.31164894
  11.25468433 10.76993487  3.47330637
   1.19986139 20.91239151  4.13568690
   1.04719126 23.04135398  8.03868501
  11.26428369  8.32183093  5.68629123
  23.56945000 20.72003331  6.51225378
   1.20451241 22.97869639  6.67275032
  11.10473884  8.38480510  7.05178445
  11.09580088 10.70494880  2.10767361
  20.96747244  0.86846219  2.14318833
  20.99159427 18.20559321  7.01957678
  15.94552226 13.13955854  6.70210929
  15.92104315  5.93509972  2.45672277
   3.61572173 18.33349424  3.27814788
   8.65696379 13.26251238  2.95999674
   3.64055063  0.74105543  5.88236966
   8.68729871  5.80700643  6.19653702
  20.28859797  0.13556523  4.22791828
  21.58675738  1.43179855  7.55107868
  21.61065670 17.64125315  1.61001001
  15.32691583 13.96071968  4.63093557
  15.30090451  5.11564834  4.52759474
   4.29407319 18.80706111  8.67155468
  16.62238321 12.66093059  1.30663493
  16.59977745  6.40846915  7.85009066
   7.97695415 12.52759038  5.04371155
   2.99695140 17.51502484  5.34997364
   3.02240782  1.56057120  3.81047953
   9.30724671  5.24270726  0.78656324
  20.31513499 18.93577566  4.93294848
   4.31816401  0.26401700  0.48702101
   8.01034732  6.53594461  4.10951037
   9.27354635 13.82408740  8.36626224
 


--------------------------------------------------------------------------------------------------------


 k-point  1 :   0.0000 0.0000 0.0000  plane waves:  152617
 k-point  2 :   0.0000-0.0000 0.3333  plane waves:  152713

 maximum and minimum number of plane-waves per node :     38226    38024

 maximum number of plane-waves:    152713
 maximum index in each direction: 
   IXMAX=   49   IYMAX=   49   IZMAX=   14
   IXMIN=  -49   IYMIN=  -49   IZMIN=  -15


 real space projection operators:
  total allocation   :      12004.19 KBytes
  max/ min on nodes  :       3034.61       2966.75


 parallel 3D FFT for wavefunctions:
    minimum data exchange during FFTs selected (reduces bandwidth)
 parallel 3D FFT for charge:
    minimum data exchange during FFTs selected (reduces bandwidth)


 total amount of memory used by VASP MPI-rank0   109390. kBytes
=======================================================================

   base      :      30000. kBytes
   nonlr-proj:       6108. kBytes
   fftplans  :      11266. kBytes
   grid      :      31214. kBytes
   one-center:       1213. kBytes
   wavefun   :      29589. kBytes
 
     INWAV:  cpu time    0.0004: real time    0.0005
 Broyden mixing: mesh for mixing (old mesh)
   NGX = 99   NGY = 99   NGZ = 29
  (NGX  =300   NGY  =300   NGZ  = 96)
  gives a total of 284229 points

 initial charge density was supplied:
 charge density of overlapping atoms calculated
 number of electron     604.0000000 magnetization       0.0000000
 keeping initial charge density in first step


--------------------------------------------------------------------------------------------------------


 Maximum index for non-local projection operator          637
 Maximum index for augmentation-charges          527 (set IRDMAX)


--------------------------------------------------------------------------------------------------------


 First call to EWALD:  gamma=   0.107
 Maximum number of real-space cells 2x 2x 5
 Maximum number of reciprocal cells 4x 4x 2

    FEWALD:  cpu time    0.0179: real time    0.0179


--------------------------------------- Iteration      1(   1)  ---------------------------------------


    POTLOK:  cpu time    0.4872: real time    0.5579
    SETDIJ:  cpu time    0.0736: real time    0.0754
     EDDAV:  cpu time   12.6888: real time   12.8044
       DOS:  cpu time    0.0097: real time    0.0102
    --------------------------------------------
      LOOP:  cpu time   13.2594: real time   13.4479

 eigenvalue-minimisations  :  3072
 total energy-change (2. order) : 0.5784698E+04  (-0.2588141E+05)
 number of electron     604.0000000 magnetization       0.0000000
 augmentation part      604.0000000 magnetization       0.0000000

 Free energy of the ion-electron system (eV)
  ---------------------------------------------------
  alpha Z        PSCENC =       369.24461080
  Ewald energy   TEWEN  =     42361.61172359
  -Hartree energ DENC   =    -65830.87390701
  -exchange      EXHF   =         0.00000000
  -V(xc)+E(xc)   XCENC  =      2112.99860866
  PAW double counting   =     22087.95224925   -22402.63741193
  entropy T*S    EENTRO =        -0.05353683
  eigenvalues    EBANDS =     -1605.35545963
  atomic energy  EATOM  =     28691.81066055
  Solvation  Ediel_sol  =         0.00000000
  ---------------------------------------------------
  free energy    TOTEN  =      5784.69753745 eV

  energy without entropy =     5784.75107428  energy(sigma->0) =     5784.72430586


--------------------------------------------------------------------------------------------------------




--------------------------------------- Iteration      1(   2)  ---------------------------------------


     EDDAV:  cpu time   17.2423: real time   17.2729
       DOS:  cpu time    0.0031: real time    0.0031
    --------------------------------------------
      LOOP:  cpu time   17.2454: real time   17.2760

 eigenvalue-minimisations  :  4480
 total energy-change (2. order) :-0.5924215E+04  (-0.5688264E+04)
 number of electron     604.0000000 magnetization       0.0000000
 augmentation part      604.0000000 magnetization       0.0000000

 Free energy of the ion-electron system (eV)
  ---------------------------------------------------
  alpha Z        PSCENC =       369.24461080
  Ewald energy   TEWEN  =     42361.61172359
  -Hartree energ DENC   =    -65830.87390701
  -exchange      EXHF   =         0.00000000
  -V(xc)+E(xc)   XCENC  =      2112.99860866
  PAW double counting   =     22087.95224925   -22402.63741193
  entropy T*S    EENTRO =        -0.00000000
  eigenvalues    EBANDS =     -7529.62350391
  atomic energy  EATOM  =     28691.81066055
  Solvation  Ediel_sol  =         0.00000000
  ---------------------------------------------------
  free energy    TOTEN  =      -139.51697000 eV

  energy without entropy =     -139.51697000  energy(sigma->0) =     -139.51697000


--------------------------------------------------------------------------------------------------------




--------------------------------------- Iteration      1(   3)  ---------------------------------------


     EDDAV:  cpu time   14.6770: real time   14.6970
       DOS:  cpu time    0.0025: real time    0.0025
    --------------------------------------------
      LOOP:  cpu time   14.6796: real time   14.6996

 eigenvalue-minimisations  :  3744
 total energy-change (2. order) :-0.1115807E+04  (-0.1108631E+04)
 number of electron     604.0000000 magnetization       0.0000000
 augmentation part      604.0000000 magnetization       0.0000000

 Free energy of the ion-electron system (eV)
  ---------------------------------------------------
  alpha Z        PSCENC =       369.24461080
  Ewald energy   TEWEN  =     42361.61172359
  -Hartree energ DENC   =    -65830.87390701
  -exchange      EXHF   =         0.00000000
  -V(xc)+E(xc)   XCENC  =      2112.99860866
  PAW double counting   =     22087.95224925   -22402.63741193
  entropy T*S    EENTRO =        -0.07034502
  eigenvalues    EBANDS =     -8645.36013868
  atomic energy  EATOM  =     28691.81066055
  Solvation  Ediel_sol  =         0.00000000
  ---------------------------------------------------
  free energy    TOTEN  =     -1255.32394978 eV

  energy without entropy =    -1255.25360477  energy(sigma->0) =    -1255.28877727


--------------------------------------------------------------------------------------------------------




--------------------------------------- Iteration      1(   4)  ---------------------------------------


     EDDAV:  cpu time   15.5067: real time   15.5252
       DOS:  cpu time    0.0025: real time    0.0025
    --------------------------------------------
      LOOP:  cpu time   15.5092: real time   15.5277

 eigenvalue-minimisations  :  4064
 total energy-change (2. order) :-0.4140423E+02  (-0.4104334E+02)
 number of electron     604.0000000 magnetization       0.0000000
 augmentation part      604.0000000 magnetization       0.0000000

 Free energy of the ion-electron system (eV)
  ---------------------------------------------------
  alpha Z        PSCENC =       369.24461080
  Ewald energy   TEWEN  =     42361.61172359
  -Hartree energ DENC   =    -65830.87390701
  -exchange      EXHF   =         0.00000000
  -V(xc)+E(xc)   XCENC  =      2112.99860866
  PAW double counting   =     22087.95224925   -22402.63741193
  entropy T*S    EENTRO =        -0.11494175
  eigenvalues    EBANDS =     -8686.71977548
  atomic energy  EATOM  =     28691.81066055
  Solvation  Ediel_sol  =         0.00000000
  ---------------------------------------------------
  free energy    TOTEN  =     -1296.72818332 eV

  energy without entropy =    -1296.61324158  energy(sigma->0) =    -1296.67071245


--------------------------------------------------------------------------------------------------------




--------------------------------------- Iteration      1(   5)  ---------------------------------------


     EDDAV:  cpu time   16.7172: real time   16.7351
       DOS:  cpu time    0.0069: real time    0.0069
    CHARGE:  cpu time    0.7246: real time    0.7285
    MIXING:  cpu time    0.0200: real time    0.0222
    --------------------------------------------
      LOOP:  cpu time   17.4687: real time   17.4928

 eigenvalue-minimisations  :  4416
 total energy-change (2. order) :-0.1236055E+01  (-0.1232047E+01)
 number of electron     604.0000168 magnetization       0.0011642
 augmentation part       37.0922499 magnetization      -0.0009224

 Broyden mixing:
  rms(total) = 0.84948E+01    rms(broyden)= 0.84942E+01
  rms(prec ) = 0.93103E+01
  weight for this iteration     100.00

 Free energy of the ion-electron system (eV)
  ---------------------------------------------------
  alpha Z        PSCENC =       369.24461080
  Ewald energy   TEWEN  =     42361.61172359
  -Hartree energ DENC   =    -65830.87390701
  -exchange      EXHF   =         0.00000000
  -V(xc)+E(xc)   XCENC  =      2112.99860866
  PAW double counting   =     22087.95224925   -22402.63741193
  entropy T*S    EENTRO =        -0.11489707
  eigenvalues    EBANDS =     -8687.95587532
  atomic energy  EATOM  =     28691.81066055
  Solvation  Ediel_sol  =         0.00000000
  ---------------------------------------------------
  free energy    TOTEN  =     -1297.96423848 eV

  energy without entropy =    -1297.84934141  energy(sigma->0) =    -1297.90678994


--------------------------------------------------------------------------------------------------------




--------------------------------------- Iteration      1(   6)  ---------------------------------------


    POTLOK:  cpu time    0.4038: real time    0.4043
    SETDIJ:  cpu time    0.0618: real time    0.0626
     EDDAV:  cpu time   15.4942: real time   15.5156
       DOS:  cpu time    0.0083: real time    0.0083
    CHARGE:  cpu time    0.6964: real time    0.6995
    MIXING:  cpu time    0.0226: real time    0.0253
    --------------------------------------------
      LOOP:  cpu time   16.6870: real time   16.7156

 eigenvalue-minimisations  :  4096
 total energy-change (2. order) :-0.1924936E+03  (-0.2268198E+03)
 number of electron     604.0000042 magnetization       0.0014513
 augmentation part       56.4880178 magnetization      -0.0151946

 Broyden mixing:
  rms(total) = 0.21210E+02    rms(broyden)= 0.21210E+02
  rms(prec ) = 0.21562E+02
  weight for this iteration     100.00

 eigenvalues of (default mixing * dielectric matrix)
  average eigenvalue GAMMA=   0.1114
  0.1114

 Free energy of the ion-electron system (eV)
  ---------------------------------------------------
  alpha Z        PSCENC =       369.24461080
  Ewald energy   TEWEN  =     42361.61172359
  -Hartree energ DENC   =    -66179.83016834
  -exchange      EXHF   =         0.00000000
  -V(xc)+E(xc)   XCENC  =      2149.57894869
  PAW double counting   =     32714.00148912   -32940.42434370
  entropy T*S    EENTRO =        -0.11527645
  eigenvalues    EBANDS =     -8656.33549548
  atomic energy  EATOM  =     28691.81066055
  Solvation  Ediel_sol  =         0.00000000
  ---------------------------------------------------
  free energy    TOTEN  =     -1490.45785122 eV

  energy without entropy =    -1490.34257476  energy(sigma->0) =    -1490.40021299


--------------------------------------------------------------------------------------------------------




--------------------------------------- Iteration      1(   7)  ---------------------------------------


    POTLOK:  cpu time    0.4085: real time    0.4089
    SETDIJ:  cpu time    0.0617: real time    0.0617
     EDDAV:  cpu time   14.4063: real time   14.4236
       DOS:  cpu time    0.0027: real time    0.0027
    CHARGE:  cpu time    0.6770: real time    0.6839
    MIXING:  cpu time    0.0089: real time    0.0110
    --------------------------------------------
      LOOP:  cpu time   15.5651: real time   15.5918

 eigenvalue-minimisations  :  3616
 total energy-change (2. order) : 0.9961458E+02  (-0.2047572E+02)
 number of electron     604.0000047 magnetization       0.0014221
 augmentation part       54.9603230 magnetization      -0.0061144

 Broyden mixing:
  rms(total) = 0.13381E+02    rms(broyden)= 0.13381E+02
  rms(prec ) = 0.13862E+02
  weight for this iteration     100.00

 eigenvalues of (default mixing * dielectric matrix)
  average eigenvalue GAMMA=   0.4961
  0.4961  0.4961

 Free energy of the ion-electron system (eV)
  ---------------------------------------------------
  alpha Z        PSCENC =       369.24461080
  Ewald energy   TEWEN  =     42361.61172359
  -Hartree energ DENC   =    -66339.92410012
  -exchange      EXHF   =         0.00000000
  -V(xc)+E(xc)   XCENC  =      2151.86199590
  PAW double counting   =     34333.57667712   -34591.71199306
  entropy T*S    EENTRO =        -0.13924161
  eigenvalues    EBANDS =     -8367.17360181
  atomic energy  EATOM  =     28691.81066055
  Solvation  Ediel_sol  =         0.00000000
  ---------------------------------------------------
  free energy    TOTEN  =     -1390.84326863 eV

  energy without entropy =    -1390.70402702  energy(sigma->0) =    -1390.77364783


--------------------------------------------------------------------------------------------------------




--------------------------------------- Iteration      1(   8)  ---------------------------------------


    POTLOK:  cpu time    0.3718: real time    0.3723
    SETDIJ:  cpu time    0.0615: real time    0.0615
     EDDAV:  cpu time   17.0389: real time   17.0581
       DOS:  cpu time    0.0030: real time    0.0030
    CHARGE:  cpu time    0.7492: real time    0.7554
    MIXING:  cpu time    0.0090: real time    0.0097
    --------------------------------------------
      LOOP:  cpu time   18.2334: real time   18.2600

 eigenvalue-minimisations  :  4384
 total energy-change (2. order) : 0.2337394E+03  (-0.2849964E+02)
 number of electron     604.0000080 magnetization       0.0013557
 augmentation part       45.0684040 magnetization       0.0127648

 Broyden mixing:
  rms(total) = 0.34465E+01    rms(broyden)= 0.34463E+01
  rms(prec ) = 0.34946E+01
  weight for this iteration     100.00

 eigenvalues of (default mixing * dielectric matrix)
  average eigenvalue GAMMA=   0.4703
  0.4596  0.4757  0.4757

 Free energy of the ion-electron system (eV)
  ---------------------------------------------------
  alpha Z        PSCENC =       369.24461080
  Ewald energy   TEWEN  =     42361.61172359
  -Hartree energ DENC   =    -66805.95999492
  -exchange      EXHF   =         0.00000000
  -V(xc)+E(xc)   XCENC  =      2164.33296152
  PAW double counting   =     39615.02406249   -39954.75147523
  entropy T*S    EENTRO =        -0.00000944
  eigenvalues    EBANDS =     -7598.41641537
  atomic energy  EATOM  =     28691.81066055
  Solvation  Ediel_sol  =         0.00000000
  ---------------------------------------------------
  free energy    TOTEN  =     -1157.10387602 eV

  energy without entropy =    -1157.10386658  energy(sigma->0) =    -1157.10387130


--------------------------------------------------------------------------------------------------------




[...]
     14.72998     11.60346      4.45090         0.001182     -0.000052     -0.000236
     14.24648      7.05447      7.88212        -0.001671      0.003859     -0.001473
     22.64623     24.29831      5.84492         0.003752     -0.003666      0.000251
     14.72063      7.48419      4.70885        -0.000989     -0.000615     -0.001616
     10.33964     11.89873      5.01792         0.003006     -0.003915     -0.000828
      1.94095     19.45480      8.70504        -0.000845      0.002370      0.001235
     22.19135     20.00793      1.79350        -0.000997     -0.002030     -0.001354
     23.40315     23.10537      2.93456         0.001346     -0.001797      0.004465
     23.56090     23.16900      4.30045        -0.000357     -0.002430     -0.002134
     23.40910     20.78260      7.87763         0.001476      0.002591     -0.002601
     13.50770     10.58095      5.84775        -0.003336     -0.004796      0.005395
     13.34368      8.44982      1.94627         0.000147     -0.000437      0.001726
      1.03885     20.84886      2.77035        -0.000279      0.002262      0.001837
     13.35138     10.64231      7.21396         0.001305     -0.002669     -0.003768
     13.50408      8.51383      3.31165        -0.000627     -0.000313     -0.000540
     11.25468     10.76993      3.47331         0.001050     -0.002161     -0.000213
      1.19986     20.91239      4.13569        -0.002852      0.001075     -0.001853
      1.04719     23.04135      8.03869         0.000737     -0.001098     -0.001389
     11.26428      8.32183      5.68629         0.001540      0.001440      0.000147
     23.56945     20.72003      6.51225         0.004373      0.003764     -0.001316
      1.20451     22.97870      6.67275        -0.001202     -0.001697      0.005342
     11.10474      8.38481      7.05178         0.000097      0.001346     -0.001948
     11.09580     10.70495      2.10767         0.003047     -0.005054      0.002178
     20.96747      0.86846      2.14319         0.003223     -0.001283      0.001249
     20.99159     18.20559      7.01958         0.003815     -0.001408      0.002979
     15.94552     13.13956      6.70211        -0.005865     -0.005683      0.003010
     15.92104      5.93510      2.45672         0.000510     -0.001226     -0.002617
      3.61572     18.33349      3.27815        -0.001138     -0.001910      0.006181
      8.65696     13.26251      2.96000         0.001696      0.001896      0.001555
      3.64055      0.74106      5.88237        -0.001762     -0.001228      0.002241
      8.68730      5.80701      6.19654        -0.001596     -0.000662     -0.005751
     20.28860      0.13557      4.22792        -0.000122      0.000207     -0.001319
     21.58676      1.43180      7.55108        -0.001176      0.000172      0.001747
     21.61066     17.64125      1.61001        -0.003121     -0.005325     -0.000057
     15.32692     13.96072      4.63094         0.000009     -0.000640     -0.001658
     15.30090      5.11565      4.52759         0.001374     -0.002405      0.002136
      4.29407     18.80706      8.67155        -0.000724      0.000298      0.003451
     16.62238     12.66093      1.30663        -0.000714      0.002065     -0.004740
     16.59978      6.40847      7.85009        -0.001403     -0.000718      0.003010
      7.97695     12.52759      5.04371         0.001266      0.001567     -0.003363
      2.99695     17.51502      5.34997         0.004960     -0.002948     -0.004728
      3.02241      1.56057      3.81048         0.000470     -0.000390     -0.000491
      9.30725      5.24271      0.78656        -0.002506     -0.003572      0.002246
     20.31513     18.93578      4.93295         0.000110     -0.001201      0.003265
      4.31816      0.26402      0.48702        -0.002254     -0.002462      0.000390
      8.01035      6.53594      4.10951         0.001389      0.001524      0.002431
      9.27355     13.82409      8.36626         0.000197     -0.000536      0.002306
 -----------------------------------------------------------------------------------
    total drift:                               -0.007200      0.073010      0.022901


--------------------------------------------------------------------------------------------------------



  FREE ENERGIE OF THE ION-ELECTRON SYSTEM (eV)
  ---------------------------------------------------
  free  energy   TOTEN  =     -1178.13506868 eV

  energy  without entropy=    -1178.13404391  energy(sigma->0) =    -1178.13455629
 


--------------------------------------------------------------------------------------------------------


    POTLOK:  cpu time    0.4542: real time    0.4549


--------------------------------------------------------------------------------------------------------




--------------------------------------------------------------------------------------------------------


  
 reached required accuracy - stopping structural energy minimisation
 writing wavefunctions
     LOOP+:  cpu time  849.3247: real time  861.4016
    4ORBIT:  cpu time    0.0000: real time    0.0000
 


 total charge     
 
# of ion       s       p       d       tot
------------------------------------------
    1        0.867   1.767   0.000   2.634
    2        0.866   1.767   0.000   2.633
    3        0.867   1.767   0.000   2.634
    4        0.867   1.767   0.000   2.634
    5        0.867   1.767   0.000   2.634
    6        0.867   1.767   0.000   2.634
    7        0.867   1.767   0.000   2.633
    8        0.867   1.767   0.000   2.634
    9        0.866   1.767   0.000   2.633
   10        0.867   1.767   0.000   2.634
   11        0.866   1.767   0.000   2.633
   12        0.867   1.767   0.000   2.634
   13        0.867   1.767   0.000   2.634
   14        0.867   1.767   0.000   2.634
   15        0.867   1.767   0.000   2.634
   16        0.867   1.767   0.000   2.634
   17        0.862   1.714   0.000   2.576
   18        0.862   1.714   0.000   2.576
   19        0.862   1.714   0.000   2.575
   20        0.862   1.714   0.000   2.576
   21        0.862   1.714   0.000   2.576
   22        0.862   1.714   0.000   2.576
   23        0.862   1.714   0.000   2.576
   24        0.862   1.714   0.000   2.576
   25        0.862   1.714   0.000   2.576
   26        0.862   1.714   0.000   2.575
   27        0.862   1.714   0.000   2.576
   28        0.862   1.714   0.000   2.576
   29        0.862   1.714   0.000   2.576
   30        0.862   1.714   0.000   2.576
   31        0.862   1.714   0.000   2.576
   32        0.862   1.714   0.000   2.576
   33        0.866   1.781   0.000   2.646
   34        0.866   1.781   0.000   2.647
   35        0.866   1.780   0.000   2.646
   36        0.866   1.781   0.000   2.647
   37        0.866   1.780   0.000   2.646
   38        0.866   1.781   0.000   2.646
   39        0.866   1.781   0.000   2.646
   40        0.866   1.780   0.000   2.646
   41        0.866   1.781   0.000   2.646
   42        0.866   1.780   0.000   2.646
   43        0.866   1.781   0.000   2.647
   44        0.866   1.780   0.000   2.646
   45        0.866   1.781   0.000   2.646
   46        0.866   1.781   0.000   2.646
   47        0.866   1.781   0.000   2.646
   48        0.866   1.781   0.000   2.647
   49        0.870   1.764   0.000   2.633
   50        0.870   1.764   0.000   2.634
   51        0.870   1.764   0.000   2.633
   52        0.870   1.764   0.000   2.634
   53        0.870   1.763   0.000   2.633
   54        0.870   1.764   0.000   2.634
   55        0.870   1.764   0.000   2.633
   56        0.870   1.764   0.000   2.634
   57        0.870   1.764   0.000   2.633
   58        0.870   1.764   0.000   2.633
   59        0.870   1.764   0.000   2.634
   60        0.870   1.763   0.000   2.633
   61        0.870   1.764   0.000   2.634
   62        0.870   1.764   0.000   2.633
   63        0.870   1.764   0.000   2.634
   64        0.870   1.764   0.000   2.634
   65        0.842   1.780   0.000   2.623
   66        0.842   1.780   0.000   2.623
   67        0.842   1.780   0.000   2.623
   68        0.842   1.780   0.000   2.623
   69        0.842   1.780   0.000   2.623
   70        0.842   1.781   0.000   2.623
   71        0.842   1.780   0.000   2.623
   72        0.842   1.780   0.000   2.623
   73        0.866   1.795   0.000   2.662
   74        0.866   1.795   0.000   2.661
   75        0.866   1.795   0.000   2.662
   76        0.866   1.795   0.000   2.662
   77        0.866   1.795   0.000   2.662
   78        0.866   1.796   0.000   2.662
   79        0.866   1.796   0.000   2.662
   80        0.866   1.795   0.000   2.662
   81        0.387   0.481   7.127   7.995
   82        0.387   0.481   7.127   7.995
   83        0.387   0.481   7.127   7.995
   84        0.387   0.481   7.127   7.995
   85        0.637   0.048   0.000   0.685
   86        0.637   0.048   0.000   0.686
   87        0.637   0.048   0.000   0.686
   88        0.637   0.048   0.000   0.686
   89        0.637   0.048   0.000   0.686
   90        0.637   0.048   0.000   0.686
   91        0.637   0.048   0.000   0.685
   92        0.637   0.048   0.000   0.685
   93        0.637   0.048   0.000   0.686
   94        0.637   0.048   0.000   0.686
   95        0.637   0.048   0.000   0.686
   96        0.637   0.048   0.000   0.686
   97        0.637   0.048   0.000   0.686
   98        0.637   0.048   0.000   0.686
   99        0.637   0.048   0.000   0.686
  100        0.637   0.048   0.000   0.686
  101        0.638   0.050   0.000   0.688
  102        0.638   0.050   0.000   0.688
  103        0.638   0.050   0.000   0.688
  104        0.638   0.050   0.000   0.688
  105        0.638   0.050   0.000   0.688
  106        0.638   0.050   0.000   0.688
  107        0.638   0.050   0.000   0.688
  108        0.638   0.050   0.000   0.688
  109        0.638   0.050   0.000   0.688
  110        0.638   0.050   0.000   0.688
  111        0.638   0.050   0.000   0.688
  112        0.638   0.050   0.000   0.688
  113        0.638   0.050   0.000   0.688
  114        0.638   0.050   0.000   0.688
  115        0.638   0.050   0.000   0.688
  116        0.638   0.050   0.000   0.688
  117        1.234   2.600   0.000   3.833
  118        1.234   2.600   0.000   3.833
  119        1.234   2.599   0.000   3.833
  120        1.234   2.599   0.000   3.833
  121        1.234   2.600   0.000   3.834
  122        1.234   2.600   0.000   3.834
  123        1.234   2.600   0.000   3.833
  124        1.234   2.599   0.000   3.833
  125        1.234   2.600   0.000   3.833
  126        1.234   2.599   0.000   3.833
  127        1.234   2.600   0.000   3.833
  128        1.234   2.600   0.000   3.834
  129        1.234   2.600   0.000   3.834
  130        1.234   2.600   0.000   3.833
  131        1.234   2.599   0.000   3.833
  132        1.234   2.599   0.000   3.833
  133        1.209   2.709   0.000   3.918
  134        1.209   2.709   0.000   3.918
  135        1.209   2.709   0.000   3.918
  136        1.209   2.709   0.000   3.918
  137        1.209   2.709   0.000   3.918
  138        1.209   2.709   0.000   3.918
  139        1.209   2.709   0.000   3.918
  140        1.209   2.709   0.000   3.918
  141        1.586   3.538   0.000   5.124
  142        1.586   3.538   0.000   5.124
  143        1.586   3.538   0.000   5.124
  144        1.586   3.538   0.000   5.124
  145        1.586   3.538   0.000   5.124
  146        1.586   3.538   0.000   5.124
  147        1.586   3.538   0.000   5.124
  148        1.586   3.538   0.000   5.124
  149        1.586   3.538   0.000   5.124
  150        1.586   3.537   0.000   5.124
  151        1.586   3.538   0.000   5.124
  152        1.586   3.538   0.000   5.124
  153        1.586   3.538   0.000   5.124
  154        1.586   3.538   0.000   5.124
  155        1.586   3.538   0.000   5.124
  156        1.586   3.538   0.000   5.124
--------------------------------------------------
tot        145.830 264.376  28.509 438.715
 


 magnetization (x)
 
# of ion       s       p       d       tot
------------------------------------------
    1        0.002   0.011   0.000   0.013
    2        0.003   0.011   0.000   0.013
    3        0.002   0.011   0.000   0.013
    4       -0.002  -0.011   0.000  -0.013
    5       -0.002  -0.011   0.000  -0.013
    6        0.002   0.011   0.000   0.013
    7       -0.003  -0.011   0.000  -0.013
    8       -0.002  -0.011   0.000  -0.013
    9       -0.003  -0.011   0.000  -0.013
   10        0.002   0.011   0.000   0.013
   11        0.003   0.011   0.000   0.013
   12       -0.002  -0.011   0.000  -0.013
   13        0.002   0.011   0.000   0.013
   14        0.002   0.011   0.000   0.013
   15       -0.002  -0.011   0.000  -0.013
   16       -0.002  -0.011   0.000  -0.013
   17        0.000   0.001   0.000   0.001
   18        0.000   0.001   0.000   0.001
   19        0.000   0.001   0.000   0.001
   20       -0.000  -0.001   0.000  -0.001
   21       -0.000  -0.001   0.000  -0.001
   22        0.000   0.001   0.000   0.001
   23       -0.000  -0.001   0.000  -0.001
   24       -0.000  -0.001   0.000  -0.001
   25       -0.000  -0.001   0.000  -0.001
   26        0.000   0.001   0.000   0.001
   27        0.000   0.001   0.000   0.001
   28       -0.000  -0.001   0.000  -0.001
   29        0.000   0.001   0.000   0.001
   30        0.000   0.001   0.000   0.001
   31       -0.000  -0.001   0.000  -0.001
   32       -0.000  -0.001   0.000  -0.001
   33       -0.000  -0.000   0.000  -0.000
   34       -0.000  -0.000   0.000  -0.000
   35       -0.000  -0.000   0.000  -0.000
   36        0.000   0.000   0.000   0.000
   37        0.000   0.000   0.000   0.000
   38       -0.000  -0.000   0.000  -0.000
   39        0.000   0.000   0.000   0.000
   40        0.000   0.000   0.000   0.000
   41        0.000   0.000   0.000   0.000
   42       -0.000  -0.000   0.000  -0.000
   43       -0.000  -0.000   0.000  -0.000
   44        0.000   0.000   0.000   0.000
   45       -0.000  -0.000   0.000  -0.000
   46       -0.000  -0.000   0.000  -0.000
   47        0.000   0.000   0.000   0.000
   48        0.000   0.000   0.000   0.000
   49        0.000   0.000   0.000   0.000
   50        0.000   0.000   0.000   0.000
   51        0.000   0.000   0.000   0.000
   52       -0.000  -0.000   0.000  -0.000
   53       -0.000  -0.000   0.000  -0.000
   54        0.000   0.000   0.000   0.000
   55       -0.000  -0.000   0.000  -0.000
   56       -0.000  -0.000   0.000  -0.000
   57       -0.000  -0.000   0.000  -0.000
   58        0.000   0.000   0.000   0.000
   59        0.000   0.000   0.000   0.000
   60       -0.000  -0.000   0.000  -0.000
   61        0.000   0.000   0.000   0.000
   62        0.000   0.000   0.000   0.000
   63       -0.000  -0.000   0.000  -0.000
   64       -0.000  -0.000   0.000  -0.000
   65        0.002   0.008   0.000   0.009
   66        0.002   0.008   0.000   0.009
   67       -0.002  -0.008   0.000  -0.009
   68       -0.002  -0.008   0.000  -0.009
   69        0.002   0.008   0.000   0.009
   70       -0.002  -0.008   0.000  -0.009
   71        0.002   0.008   0.000   0.009
   72       -0.002  -0.008   0.000  -0.009
   73        0.000   0.000   0.000   0.000
   74        0.000   0.000   0.000   0.000
   75       -0.000  -0.000   0.000  -0.000
   76       -0.000  -0.000   0.000  -0.000
   77        0.000   0.000   0.000   0.000
   78       -0.000  -0.000   0.000  -0.000
   79        0.000   0.000   0.000   0.000
   80       -0.000  -0.000   0.000  -0.000
   81        0.011   0.078   2.375   2.464
   82        0.011   0.078   2.375   2.464
   83       -0.011  -0.078  -2.375  -2.464
   84       -0.011  -0.078  -2.375  -2.464
   85        0.000  -0.000   0.000   0.000
   86        0.000  -0.000   0.000   0.000
   87        0.000  -0.000   0.000   0.000
   88       -0.000   0.000   0.000  -0.000
   89       -0.000   0.000   0.000  -0.000
   90        0.000  -0.000   0.000   0.000
   91       -0.000   0.000   0.000  -0.000
   92       -0.000   0.000   0.000  -0.000
   93       -0.000   0.000   0.000  -0.000
   94        0.000  -0.000   0.000   0.000
   95        0.000  -0.000   0.000   0.000
   96       -0.000   0.000   0.000  -0.000
   97        0.000  -0.000   0.000   0.000
   98        0.000  -0.000   0.000   0.000
   99       -0.000   0.000   0.000  -0.000
  100       -0.000   0.000   0.000  -0.000
  101       -0.001  -0.000   0.000  -0.001
  102       -0.001  -0.000   0.000  -0.001
  103       -0.001  -0.000   0.000  -0.001
  104        0.001   0.000   0.000   0.001
  105        0.001   0.000   0.000   0.001
  106       -0.001  -0.000   0.000  -0.001
  107        0.001   0.000   0.000   0.001
  108        0.001   0.000   0.000   0.001
  109        0.001   0.000   0.000   0.001
  110       -0.001  -0.000   0.000  -0.001
  111       -0.001  -0.000   0.000  -0.001
  112        0.001   0.000   0.000   0.001
  113       -0.001  -0.000   0.000  -0.001
  114       -0.001  -0.000   0.000  -0.001
  115        0.001   0.000   0.000   0.001
  116        0.001   0.000   0.000   0.001
  117        0.013   0.043   0.000   0.056
  118        0.013   0.043   0.000   0.056
  119        0.013   0.043   0.000   0.056
  120       -0.013  -0.043   0.000  -0.056
  121       -0.013  -0.043   0.000  -0.056
  122        0.013   0.043   0.000   0.056
  123       -0.013  -0.043   0.000  -0.056
  124       -0.013  -0.043   0.000  -0.056
  125       -0.013  -0.043   0.000  -0.056
  126        0.013   0.043   0.000   0.056
  127        0.013   0.043   0.000   0.056
  128       -0.013  -0.043   0.000  -0.056
  129        0.013   0.043   0.000   0.056
  130        0.013   0.043   0.000   0.056
  131       -0.013  -0.044   0.000  -0.056
  132       -0.013  -0.043   0.000  -0.056
  133        0.000   0.000   0.000   0.001
  134        0.000   0.001   0.000   0.001
  135       -0.000  -0.000   0.000  -0.001
  136       -0.000  -0.001   0.000  -0.001
  137        0.000   0.001   0.000   0.001
  138       -0.000  -0.000   0.000  -0.001
  139        0.000   0.000   0.000   0.001
  140       -0.000  -0.001   0.000  -0.001
  141        0.000   0.001   0.000   0.001
  142        0.000   0.001   0.000   0.001
  143        0.000   0.001   0.000   0.001
  144       -0.000  -0.001   0.000  -0.001
  145       -0.000  -0.001   0.000  -0.001
  146        0.000   0.001   0.000   0.001
  147       -0.000  -0.001   0.000  -0.001
  148       -0.000  -0.001   0.000  -0.001
  149       -0.000  -0.001   0.000  -0.001
  150        0.000   0.001   0.000   0.001
  151        0.000   0.001   0.000   0.001
  152       -0.000  -0.001   0.000  -0.001
  153        0.000   0.001   0.000   0.001
  154        0.000   0.001   0.000   0.001
  155       -0.000  -0.001   0.000  -0.001
  156       -0.000  -0.001   0.000  -0.001
--------------------------------------------------
tot          0.000   0.000  -0.000  -0.000
 

 total amount of memory used by VASP MPI-rank0   109390. kBytes
=======================================================================

   base      :      30000. kBytes
   nonlr-proj:       6108. kBytes
   fftplans  :      11266. kBytes
   grid      :      31214. kBytes
   one-center:       1213. kBytes
   wavefun   :      29589. kBytes
 
  
  
 General timing and accounting informations for this job:
 ========================================================
  
                  Total CPU time used (sec):     1064.358
                            User time (sec):      949.076
                          System time (sec):      115.282
                         Elapsed time (sec):     1085.502
  
                   Maximum memory used (kb):      953344.
                   Average memory used (kb):           0.
  
                          Minor page faults:       224486
                          Major page faults:            5
                 Voluntary context switches:        41722
