       N       E                     dE             d eps       ncg     rms          rms(c)
DAV:   1     0.533328080370E+04    0.53333E+04   -0.28001E+05  9216   0.147E+03
DAV:   2    -0.381186836324E+03   -0.57145E+04   -0.54959E+04 12960   0.328E+02
DAV:   3    -0.126450283149E+04   -0.88332E+03   -0.87633E+03 10880   0.137E+02
DAV:   4    -0.129512198102E+04   -0.30619E+02   -0.30412E+02 12320   0.338E+01
DAV:   5    -0.129604221286E+04   -0.92023E+00   -0.91844E+00 13280   0.533E+00    0.850E+01
DAV:   6    -0.149204525349E+04   -0.19600E+03   -0.23586E+03 14528   0.921E+01    0.217E+02
DAV:   7    -0.140274949742E+04    0.89296E+02   -0.19785E+02 10848   0.326E+01    0.140E+02
DAV:   8    -0.115843586854E+04    0.24431E+03   -0.23270E+02 13056   0.999E+01    0.301E+01
DAV:   9    -0.117227940080E+04   -0.13844E+02   -0.13610E+02 12704   0.222E+01    0.367E+01
DAV:  10    -0.118153039543E+04   -0.92510E+01   -0.23748E+02 13024   0.209E+01    0.522E+01
DAV:  11    -0.117230786634E+04    0.92225E+01   -0.13767E+02 13152   0.353E+01    0.466E+01
DAV:  12    -0.116575261722E+04    0.65552E+01   -0.40294E+01 12896   0.205E+01    0.222E+01
DAV:  13    -0.116617245559E+04   -0.41984E+00   -0.26772E+01 13248   0.108E+01    0.173E+01
DAV:  14    -0.116688295925E+04   -0.71050E+00   -0.47436E+00 12864   0.558E+00    0.944E+00
DAV:  15    -0.116726660222E+04   -0.38364E+00   -0.98290E-01 13536   0.500E+00    0.753E+00
DAV:  16    -0.116752371621E+04   -0.25711E+00   -0.22218E-01 12928   0.198E+00    0.578E+00
DAV:  17    -0.116761483035E+04   -0.91114E-01   -0.20402E-01 13632   0.293E+00    0.359E+00
DAV:  18    -0.116761427653E+04    0.55383E-03   -0.25830E-01 13408   0.364E+00    0.198E+00
DAV:  19    -0.116761789456E+04   -0.36180E-02   -0.25254E-01 13248   0.232E+00    0.122E+00
DAV:  20    -0.116765922024E+04   -0.41326E-01   -0.14687E-01 13152   0.162E+00    0.819E-01
DAV:  21    -0.116773888663E+04   -0.79666E-01   -0.70124E-02 13152   0.113E+00    0.555E-01
DAV:  22    -0.116780707171E+04   -0.68185E-01   -0.50352E-02 13792   0.101E+00    0.859E-01
DAV:  23    -0.116784241228E+04   -0.35341E-01   -0.38002E-02 12160   0.446E-01    0.476E-01
DAV:  24    -0.116789959784E+04   -0.57186E-01   -0.83413E-03 11968   0.287E-01    0.314E-01
DAV:  25    -0.116797071213E+04   -0.71114E-01   -0.76904E-03 12256   0.377E-01    0.646E-01
DAV:  26    -0.116797703647E+04   -0.63243E-02   -0.26920E-03 11744   0.115E-01    0.563E-01
DAV:  27    -0.116800604834E+04   -0.29012E-01   -0.98388E-04 11200   0.757E-02    0.466E-01
DAV:  28    -0.116809874082E+04   -0.92692E-01   -0.59625E-03 11552   0.228E-01    0.173E-01
DAV:  29    -0.116812731193E+04   -0.28571E-01   -0.16168E-03 11616   0.117E-01    0.167E-01
DAV:  30    -0.116816983250E+04   -0.42521E-01   -0.14161E-03 11456   0.833E-02    0.113E-01
DAV:  31    -0.116820793715E+04   -0.38105E-01   -0.12643E-03 11424   0.850E-02    0.958E-02
DAV:  32    -0.116822430216E+04   -0.16365E-01   -0.43333E-04 11584   0.480E-02    0.647E-02
DAV:  33    -0.116823331949E+04   -0.90173E-02   -0.28384E-04 11520   0.411E-02    0.363E-02
DAV:  34    -0.116823680250E+04   -0.34830E-02   -0.98425E-05 11296   0.189E-02    0.273E-02
DAV:  35    -0.116823917356E+04   -0.23711E-02   -0.65942E-05 10368   0.144E-02    0.211E-02
DAV:  36    -0.116824054409E+04   -0.13705E-02   -0.39702E-05 10624   0.103E-02    0.159E-02
DAV:  37    -0.116824150228E+04   -0.95818E-03   -0.29101E-05 10240   0.988E-03    0.733E-03
DAV:  38    -0.116824220453E+04   -0.70225E-03   -0.25970E-05 10400   0.829E-03    0.387E-03
DAV:  39    -0.116824249177E+04   -0.28724E-03   -0.87714E-06 10048   0.382E-03    0.281E-03
DAV:  40    -0.116824263394E+04   -0.14217E-03   -0.35933E-06  9440   0.238E-03    0.228E-03
DAV:  41    -0.116824268101E+04   -0.47071E-04   -0.11736E-06  7936   0.181E-03    0.204E-03
DAV:  42    -0.116824271180E+04   -0.30791E-04   -0.16976E-06  8640   0.206E-03    0.884E-04
DAV:  43    -0.116824272142E+04   -0.96154E-05   -0.37252E-07  7648   0.942E-04    0.711E-04
DAV:  44    -0.116824272576E+04   -0.43395E-05   -0.16276E-07  7136   0.641E-04    0.565E-04
DAV:  45    -0.116824272835E+04   -0.25938E-05   -0.90227E-08  7008   0.617E-04    0.529E-04
DAV:  46    -0.116824273065E+04   -0.22996E-05   -0.65250E-08  6976   0.461E-04    0.337E-04
DAV:  47    -0.116824273290E+04   -0.22558E-05   -0.69546E-08  7168   0.360E-04    0.206E-04
DAV:  48    -0.116824273370E+04   -0.79910E-06   -0.25196E-08  6528   0.252E-04
   1 F= -.11791973E+04 E0= -.11791934E+04  d E =-.117920E+04  mag=     0.0004
