 vasp.6.0.8 29Jun18 (build Mar 14 2019 11:44:20) complex                        
  
 executed on             LinuxIFC date 2020.12.23  11:56:56
 running  128 mpi-ranks, with    1 threads/rank
 distrk:  each k-point on  128 cores,    1 groups
 distr:  one band on NCORES_PER_BAND=   4 cores,   32 groups


--------------------------------------------------------------------------------------------------------


 INCAR:
 POTCAR:    PAW_PBE C 08Apr2002                   
 POTCAR:    PAW_PBE Co 02Aug2007                  
 POTCAR:    PAW_PBE H 15Jun2001                   
 POTCAR:    PAW_PBE N 08Apr2002                   
 POTCAR:    PAW_PBE O 08Apr2002                   
 POTCAR:    PAW_PBE C 08Apr2002                   
   VRHFIN =C: s2p2                                                              
   LEXCH  = PE                                                                  
   EATOM  =   147.1560 eV,   10.8157 Ry                                         
                                                                                
   TITEL  = PAW_PBE C 08Apr2002                                                 
   LULTRA =        F    use ultrasoft PP ?                                      
   IUNSCR =        1    unscreen: 0-lin 1-nonlin 2-no                           
   RPACOR =    1.200    partial core radius                                     
   POMASS =   12.011; ZVAL   =    4.000    mass and valenz                      
   RCORE  =    1.500    outmost cutoff radius                                   
   RWIGS  =    1.630; RWIGS  =    0.863    wigner-seitz radius (au A)           
   ENMAX  =  400.000; ENMIN  =  300.000 eV                                      
   ICORE  =        2    local potential                                         
   LCOR   =        T    correct aug charges                                     
   LPAW   =        T    paw PP                                                  
   EAUG   =  644.873                                                            
   DEXC   =    0.000                                                            
   RMAX   =    1.529    core radius for proj-oper                               
   RAUG   =    1.300    factor for augmentation sphere                          
   RDEP   =    1.501    radius for radial grids                                 
   RDEPT  =    1.300    core radius for aug-charge                              
                                                                                
   Atomic configuration                                                         
    4 entries                                                                   
     n  l   j            E        occ.                                          
     1  0  0.50      -273.3789   2.0000                                         
     2  0  0.50       -13.7508   2.0000                                         
     2  1  0.50        -5.2854   2.0000                                         
     3  2  1.50        -5.4423   0.0000                                         
   Description                                                                  
     l       E           TYP  RCUT    TYP  RCUT                                 
     0    -13.7508458     23  1.200                                             
     0     -8.2022199     23  1.200                                             
     1     -5.2854383     23  1.500                                             
     1     34.0145650     23  1.500                                             
     2     -5.4423304      7  1.500                                             
  local pseudopotential read in
  partial core-charges read in
  partial kinetic energy density read in
  atomic valenz-charges read in
  non local Contribution for L=           0  read in
    real space projection operators read in
  non local Contribution for L=           0  read in
    real space projection operators read in
  non local Contribution for L=           1  read in
    real space projection operators read in
  non local Contribution for L=           1  read in
    real space projection operators read in
    PAW grid and wavefunctions read in
 
   number of l-projection  operators is LMAX  =           4
   number of lm-projection operators is LMMAX =           8
 
 POTCAR:    PAW_PBE Co 02Aug2007                  
   VRHFIN =Co: d8 s1                                                            
   LEXCH  = PE                                                                  
   EATOM  =   813.3670 eV,   59.7808 Ry                                         
                                                                                
   TITEL  = PAW_PBE Co 02Aug2007                                                
   LULTRA =        F    use ultrasoft PP ?                                      
   IUNSCR =        1    unscreen: 0-lin 1-nonlin 2-no                           
   RPACOR =    2.000    partial core radius                                     
   POMASS =   58.933; ZVAL   =    9.000    mass and valenz                      
   RCORE  =    2.300    outmost cutoff radius                                   
   RWIGS  =    2.460; RWIGS  =    1.302    wigner-seitz radius (au A)           
   ENMAX  =  267.968; ENMIN  =  200.976 eV                                      
   RCLOC  =    1.203    cutoff for local pot                                    
   LCOR   =        T    correct aug charges                                     
   LPAW   =        T    paw PP                                                  
   EAUG   =  477.818                                                            
   DEXC   =    0.000                                                            
   RMAX   =    2.360    core radius for proj-oper                               
   RAUG   =    1.300    factor for augmentation sphere                          
   RDEP   =    2.393    radius for radial grids                                 
   RDEPT  =    1.864    core radius for aug-charge                              
                                                                                
   Atomic configuration                                                         
    9 entries                                                                   
     n  l   j            E        occ.                                          
     1  0  0.50     -7587.6674   2.0000                                         
     2  0  0.50      -893.6084   2.0000                                         
     2  1  1.50      -764.5805   6.0000                                         
     3  0  0.50       -97.5973   2.0000                                         
     3  1  1.50       -60.9648   6.0000                                         
     3  2  2.50        -4.2382   8.0000                                         
     4  0  0.50        -4.3746   1.0000                                         
     4  1  1.50        -4.0817   0.0000                                         
     4  3  2.50        -1.3606   0.0000                                         
   Description                                                                  
     l       E           TYP  RCUT    TYP  RCUT                                 
     2     -4.2382362     23  2.300                                             
     2     -5.5988188     23  2.300                                             
     0     -4.3745797     23  2.300                                             
     0      5.7660125     23  2.300                                             
     1     -2.7211652     23  2.300                                             
     1     16.9860234     23  2.300                                             
  local pseudopotential read in
  partial core-charges read in
  partial kinetic energy density read in
  atomic valenz-charges read in
  non local Contribution for L=           2  read in
    real space projection operators read in
  non local Contribution for L=           2  read in
    real space projection operators read in
  non local Contribution for L=           0  read in
    real space projection operators read in
  non local Contribution for L=           0  read in
    real space projection operators read in
  non local Contribution for L=           1  read in
    real space projection operators read in
  non local Contribution for L=           1  read in
    real space projection operators read in
    PAW grid and wavefunctions read in
 
   number of l-projection  operators is LMAX  =           6
   number of lm-projection operators is LMMAX =          18
 
 POTCAR:    PAW_PBE H 15Jun2001                   
   VRHFIN =H: ultrasoft test                                                    
   LEXCH  = PE                                                                  
   EATOM  =    12.4884 eV,    0.9179 Ry                                         
                                                                                
   TITEL  = PAW_PBE H 15Jun2001                                                 
   LULTRA =        F    use ultrasoft PP ?                                      
   IUNSCR =        0    unscreen: 0-lin 1-nonlin 2-no                           
   RPACOR =    0.000    partial core radius                                     
   POMASS =    1.000; ZVAL   =    1.000    mass and valenz                      
   RCORE  =    1.100    outmost cutoff radius                                   
   RWIGS  =    0.700; RWIGS  =    0.370    wigner-seitz radius (au A)           
   ENMAX  =  250.000; ENMIN  =  200.000 eV                                      
   RCLOC  =    0.701    cutoff for local pot                                    
   LCOR   =        T    correct aug charges                                     
   LPAW   =        T    paw PP                                                  
   EAUG   =  400.000                                                            
   RMAX   =    1.123    core radius for proj-oper                               
   RAUG   =    1.200    factor for augmentation sphere                          
   RDEP   =    1.112    radius for radial grids                                 
   RDEPT  =    0.926    core radius for aug-charge                              
                                                                                
   Atomic configuration                                                         
    2 entries                                                                   
     n  l   j            E        occ.                                          
     1  0  0.50        -6.4927   1.0000                                         
     2  1  0.50        -3.4015   0.0000                                         
   Description                                                                  
     l       E           TYP  RCUT    TYP  RCUT                                 
     0     -6.4927494     23  1.100                                             
     0      6.8029130     23  1.100                                             
     1     -4.0817478     23  1.100                                             
  local pseudopotential read in
  atomic valenz-charges read in
  non local Contribution for L=           0  read in
    real space projection operators read in
  non local Contribution for L=           0  read in
    real space projection operators read in
  non local Contribution for L=           1  read in
    real space projection operators read in
    PAW grid and wavefunctions read in
 
   number of l-projection  operators is LMAX  =           3
   number of lm-projection operators is LMMAX =           5
 
 POTCAR:    PAW_PBE N 08Apr2002                   
   VRHFIN =N: s2p3                                                              
   LEXCH  = PE                                                                  
   EATOM  =   264.5486 eV,   19.4438 Ry                                         
                                                                                
   TITEL  = PAW_PBE N 08Apr2002                                                 
   LULTRA =        F    use ultrasoft PP ?                                      
   IUNSCR =        1    unscreen: 0-lin 1-nonlin 2-no                           
   RPACOR =    1.200    partial core radius                                     
   POMASS =   14.001; ZVAL   =    5.000    mass and valenz                      
   RCORE  =    1.500    outmost cutoff radius                                   
   RWIGS  =    1.400; RWIGS  =    0.741    wigner-seitz radius (au A)           
   ENMAX  =  400.000; ENMIN  =  300.000 eV                                      
   ICORE  =        2    local potential                                         
   LCOR   =        T    correct aug charges                                     
   LPAW   =        T    paw PP                                                  
   EAUG   =  627.112                                                            
   DEXC   =    0.000                                                            
   RMAX   =    1.529    core radius for proj-oper                               
   RAUG   =    1.300    factor for augmentation sphere                          
   RDEP   =    1.514    radius for radial grids                                 
   RDEPT  =    1.338    core radius for aug-charge                              
                                                                                
   Atomic configuration                                                         
    4 entries                                                                   
     n  l   j            E        occ.                                          
     1  0  0.50      -384.7179   2.0000                                         
     2  0  0.50       -18.5828   2.0000                                         
     2  1  0.50        -7.0898   3.0000                                         
     3  2  1.50        -6.8029   0.0000                                         
   Description                                                                  
     l       E           TYP  RCUT    TYP  RCUT                                 
     0    -18.5828119     23  1.200                                             
     0    -13.5018863     23  1.200                                             
     1     -7.0897853     23  1.500                                             
     1      9.5240782     23  1.500                                             
     2     -6.8029130      7  1.500                                             
  local pseudopotential read in
  partial core-charges read in
  partial kinetic energy density read in
  atomic valenz-charges read in
  non local Contribution for L=           0  read in
    real space projection operators read in
  non local Contribution for L=           0  read in
    real space projection operators read in
  non local Contribution for L=           1  read in
    real space projection operators read in
  non local Contribution for L=           1  read in
    real space projection operators read in
    PAW grid and wavefunctions read in
 
   number of l-projection  operators is LMAX  =           4
   number of lm-projection operators is LMMAX =           8
 
 POTCAR:    PAW_PBE O 08Apr2002                   
   VRHFIN =O: s2p4                                                              
   LEXCH  = PE                                                                  
   EATOM  =   432.3788 eV,   31.7789 Ry                                         
                                                                                
   TITEL  = PAW_PBE O 08Apr2002                                                 
   LULTRA =        F    use ultrasoft PP ?                                      
   IUNSCR =        1    unscreen: 0-lin 1-nonlin 2-no                           
   RPACOR =    1.200    partial core radius                                     
   POMASS =   16.000; ZVAL   =    6.000    mass and valenz                      
   RCORE  =    1.520    outmost cutoff radius                                   
   RWIGS  =    1.550; RWIGS  =    0.820    wigner-seitz radius (au A)           
   ENMAX  =  400.000; ENMIN  =  300.000 eV                                      
   ICORE  =        2    local potential                                         
   LCOR   =        T    correct aug charges                                     
   LPAW   =        T    paw PP                                                  
   EAUG   =  605.392                                                            
   DEXC   =    0.000                                                            
   RMAX   =    1.553    core radius for proj-oper                               
   RAUG   =    1.300    factor for augmentation sphere                          
   RDEP   =    1.550    radius for radial grids                                 
   RDEPT  =    1.329    core radius for aug-charge                              
                                                                                
   Atomic configuration                                                         
    4 entries                                                                   
     n  l   j            E        occ.                                          
     1  0  0.50      -514.6923   2.0000                                         
     2  0  0.50       -23.9615   2.0000                                         
     2  1  0.50        -9.0305   4.0000                                         
     3  2  1.50        -9.5241   0.0000                                         
   Description                                                                  
     l       E           TYP  RCUT    TYP  RCUT                                 
     0    -23.9615318     23  1.200                                             
     0     -9.5240782     23  1.200                                             
     1     -9.0304911     23  1.520                                             
     1      8.1634956     23  1.520                                             
     2     -9.5240782      7  1.500                                             
  local pseudopotential read in
  partial core-charges read in
  partial kinetic energy density read in
  kinetic energy density of atom read in
  atomic valenz-charges read in
  non local Contribution for L=           0  read in
    real space projection operators read in
  non local Contribution for L=           0  read in
    real space projection operators read in
  non local Contribution for L=           1  read in
    real space projection operators read in
  non local Contribution for L=           1  read in
    real space projection operators read in
    PAW grid and wavefunctions read in
 
   number of l-projection  operators is LMAX  =           4
   number of lm-projection operators is LMMAX =           8
 
 Optimization of the real space projectors (new method)

 maximal supplied QI-value         = 25.13
 optimisation between [QCUT,QGAM] = [ 12.32, 24.88] = [ 42.47,173.37] Ry 
 Optimized for a Real-space Cutoff    1.06 Angstroem

   l    n(q)    QCUT    max X(q) W(low)/X(q) W(high)/X(q)  e(spline) 
   0      8    12.315   115.676    0.34E-03    0.18E-03    0.23E-06
   0      8    12.315    87.132    0.34E-03    0.18E-03    0.22E-06
   1      7    12.315     4.429    0.45E-03    0.12E-03    0.18E-06
   1      7    12.315     2.733    0.35E-03    0.97E-04    0.15E-06
 Optimization of the real space projectors (new method)

 maximal supplied QI-value         = 16.25
 optimisation between [QCUT,QGAM] = [ 12.51, 25.03] = [ 43.85,175.40] Ry 
 Optimized for a Real-space Cutoff    1.31 Angstroem

   l    n(q)    QCUT    max X(q) W(low)/X(q) W(high)/X(q)  e(spline) 
   2      9    12.514    65.824    0.30E-03    0.46E-03    0.43E-06
   2      9    12.514    61.429    0.31E-03    0.46E-03    0.44E-06
   0     10    12.514    56.174    0.90E-04    0.33E-03    0.30E-06
   0     10    12.514    31.263    0.81E-04    0.30E-03    0.28E-06
   1      9    12.514    19.828    0.38E-03    0.65E-04    0.24E-06
   1      9    12.514    15.139    0.32E-03    0.60E-04    0.20E-06
 Optimization of the real space projectors (new method)

 maximal supplied QI-value         = 34.20
 optimisation between [QCUT,QGAM] = [ 12.31, 24.97] = [ 42.46,174.58] Ry 
 Optimized for a Real-space Cutoff    1.00 Angstroem

   l    n(q)    QCUT    max X(q) W(low)/X(q) W(high)/X(q)  e(spline) 
   0      7    12.313    19.460    0.14E-03    0.42E-03    0.16E-06
   0      7    12.313    12.209    0.12E-03    0.40E-03    0.16E-06
   1      7    12.313     4.655    0.33E-03    0.59E-03    0.89E-07
 Optimization of the real space projectors (new method)

 maximal supplied QI-value         = 25.13
 optimisation between [QCUT,QGAM] = [ 12.32, 24.88] = [ 42.47,173.37] Ry 
 Optimized for a Real-space Cutoff    1.20 Angstroem

   l    n(q)    QCUT    max X(q) W(low)/X(q) W(high)/X(q)  e(spline) 
   0      9    12.315    79.467    0.14E-03    0.22E-04    0.37E-06
   0      9    12.315    66.151    0.14E-03    0.23E-04    0.36E-06
   1      8    12.315    22.077    0.30E-03    0.54E-03    0.45E-06
   1      8    12.315    15.894    0.30E-03    0.55E-03    0.45E-06
 Optimization of the real space projectors (new method)

 maximal supplied QI-value         = 24.76
 optimisation between [QCUT,QGAM] = [ 12.38, 25.00] = [ 42.90,175.06] Ry 
 Optimized for a Real-space Cutoff    1.13 Angstroem

   l    n(q)    QCUT    max X(q) W(low)/X(q) W(high)/X(q)  e(spline) 
   0      8    12.378    20.381    0.16E-03    0.54E-05    0.27E-06
   0      8    12.378    15.268    0.17E-03    0.61E-05    0.29E-06
   1      8    12.378     5.964    0.38E-03    0.23E-03    0.28E-06
   1      8    12.378     5.382    0.33E-03    0.20E-03    0.25E-06
  PAW_PBE C 08Apr2002                   :
 energy of atom  1       EATOM= -147.1560
 kinetic energy error for atom=    0.0057 (will be added to EATOM!!)
  PAW_PBE Co 02Aug2007                  :
 energy of atom  2       EATOM= -813.3670
 kinetic energy error for atom=    0.0018 (will be added to EATOM!!)
  PAW_PBE H 15Jun2001                   :
 energy of atom  3       EATOM=  -12.4884
 kinetic energy error for atom=    0.0004 (will be added to EATOM!!)
  PAW_PBE N 08Apr2002                   :
 energy of atom  4       EATOM= -264.5486
 kinetic energy error for atom=    0.0103 (will be added to EATOM!!)
  PAW_PBE O 08Apr2002                   :
 energy of atom  5       EATOM= -432.3788
 kinetic energy error for atom=    0.0168 (will be added to EATOM!!)
 
 
 POSCAR: CoH_5	
  positions in direct lattice
  velocities in cartesian coordinates
 exchange correlation table for  LEXCH =        8
   RHO(1)=    0.500       N(1)  =     2000
   RHO(2)=  100.500       N(2)  =     4000
 


--------------------------------------------------------------------------------------------------------


 ion  position               nearest neighbor table
   1  0.874  0.964  0.126- 107 1.09 117 1.35  65 1.40
   2  0.938  0.977  0.412- 112 1.08 118 1.35  65 1.40
   3  0.874  0.816  0.927- 116 1.09 119 1.35  66 1.40
   4  0.626  0.464  0.626- 110 1.09 120 1.35  67 1.40
   5  0.563  0.303  0.140- 111 1.08 121 1.35  68 1.40
   6  0.063  0.803  0.140- 115 1.08 122 1.35  69 1.40
   7  0.562  0.477  0.911- 101 1.08 123 1.35  67 1.40
   8  0.626  0.316  0.426- 113 1.09 124 1.35  68 1.40
   9  0.438  0.477  0.412- 114 1.08 125 1.35  70 1.40
  10  0.126  0.816  0.426- 104 1.09 126 1.35  69 1.40
  11  0.062  0.977  0.912- 105 1.08 127 1.35  71 1.40
  12  0.437  0.303  0.641- 102 1.08 128 1.35  72 1.40
  13  0.937  0.803  0.641- 108 1.08 129 1.35  66 1.40
  14  0.126  0.964  0.625- 109 1.09 130 1.35  71 1.40
  15  0.374  0.316  0.927- 106 1.09 131 1.35  72 1.40
  16  0.374  0.464  0.127- 103 1.09 132 1.35  70 1.40
  17  0.800  0.036  0.455- 141 1.23 133 1.42  33 1.48
  18  0.852  0.074  0.079- 142 1.23 133 1.42  34 1.48
  19  0.851  0.706  0.974- 143 1.23 134 1.42  35 1.48
  20  0.648  0.574  0.580- 144 1.23 135 1.42  36 1.48
  21  0.649  0.206  0.473- 145 1.23 136 1.42  37 1.48
  22  0.201  0.744  0.097- 146 1.23 137 1.42  38 1.48
  23  0.700  0.536  0.955- 147 1.23 135 1.42  39 1.48
  24  0.701  0.244  0.097- 148 1.23 136 1.42  40 1.48
  25  0.300  0.536  0.456- 149 1.23 138 1.42  41 1.48
  26  0.149  0.706  0.474- 150 1.23 137 1.42  42 1.48
  27  0.148  0.075  0.579- 151 1.23 139 1.42  43 1.48
  28  0.351  0.206  0.974- 152 1.23 140 1.42  44 1.48
  29  0.799  0.744  0.598- 153 1.23 134 1.42  45 1.48
  30  0.200  0.036  0.955- 154 1.23 139 1.42  46 1.48
  31  0.299  0.244  0.598- 155 1.23 140 1.42  47 1.48
  32  0.352  0.574  0.080- 156 1.23 138 1.42  48 1.48
  33  0.761  0.080  0.455-  49 1.39  73 1.42  17 1.48
  34  0.813  0.118  0.089-  50 1.39  73 1.42  18 1.48
  35  0.812  0.662  0.964-  51 1.39  74 1.42  19 1.48
  36  0.687  0.618  0.590-  52 1.39  75 1.42  20 1.48
  37  0.688  0.163  0.464-  53 1.39  76 1.42  21 1.48
  38  0.240  0.701  0.098-  54 1.39  77 1.42  22 1.48
  39  0.739  0.579  0.955-  55 1.39  75 1.42  23 1.48
  40  0.740  0.201  0.098-  56 1.39  76 1.42  24 1.48
  41  0.261  0.580  0.456-  57 1.39  78 1.42  25 1.48
  42  0.188  0.662  0.464-  58 1.39  77 1.42  26 1.48
  43  0.186  0.118  0.589-  59 1.39  79 1.42  27 1.48
  44  0.312  0.162  0.964-  60 1.39  80 1.42  28 1.48
  45  0.760  0.701  0.599-  61 1.39  74 1.42  29 1.48
  46  0.239  0.080  0.955-  62 1.39  79 1.42  30 1.48
  47  0.260  0.201  0.599-  63 1.39  80 1.42  31 1.48
  48  0.314  0.618  0.090-  64 1.39  78 1.42  32 1.48
  49  0.717  0.082  0.634-  88 1.09  33 1.39  53 1.40
  50  0.821  0.157  0.915-  99 1.09  34 1.39  56 1.40
  51  0.820  0.623  0.138-  93 1.09  35 1.39  55 1.40
  52  0.679  0.657  0.416-  90 1.09  36 1.39  61 1.40
  53  0.680  0.123  0.638-  98 1.09  37 1.39  49 1.40
  54  0.284  0.698  0.919-  96 1.09  38 1.39  64 1.40
  55  0.783  0.582  0.134-  86 1.09  39 1.39  51 1.40
  56  0.784  0.199  0.919-  87 1.09  40 1.39  50 1.40
  57  0.217  0.582  0.635-  95 1.09  41 1.39  58 1.40
  58  0.180  0.623  0.639-  91 1.09  42 1.39  57 1.40
  59  0.179  0.157  0.415-  92 1.09  43 1.39  63 1.40
  60  0.319  0.123  0.138-  85 1.09  44 1.39  62 1.40
  61  0.716  0.699  0.420-  89 1.09  45 1.39  52 1.40
  62  0.283  0.082  0.133- 100 1.09  46 1.39  60 1.40
  63  0.216  0.199  0.420-  94 1.09  47 1.39  59 1.40
  64  0.321  0.657  0.915-  97 1.09  48 1.39  54 1.40
  65  0.882  0.995  0.266-   2 1.40   1 1.40 133 1.42
  66  0.882  0.785  0.787-  13 1.40   3 1.40 134 1.42
  67  0.618  0.495  0.766-   7 1.40   4 1.40 135 1.42
  68  0.618  0.285  0.286-   5 1.40   8 1.40 136 1.42
  69  0.118  0.785  0.286-   6 1.40  10 1.40 137 1.42
  70  0.382  0.495  0.267-   9 1.40  16 1.40 138 1.42
  71  0.117  0.995  0.765-  11 1.40  14 1.40 139 1.42
  72  0.382  0.285  0.787-  12 1.40  15 1.40 140 1.42
  73  0.769  0.119  0.274-  33 1.42  34 1.42  76 1.43
  74  0.768  0.661  0.779-  45 1.42  35 1.42  75 1.43
  75  0.731  0.619  0.775-  39 1.42  36 1.42  74 1.43
  76  0.732  0.161  0.279-  40 1.42  37 1.42  73 1.43
  77  0.232  0.661  0.279-  38 1.42  42 1.42  78 1.43
  78  0.269  0.619  0.275-  41 1.42  48 1.42  77 1.43
  79  0.231  0.119  0.774-  46 1.42  43 1.42  80 1.43
  80  0.268  0.161  0.779-  47 1.42  44 1.42  79 1.43
  81  0.974  0.890  0.026- 119 1.95 117 1.95 127 1.96 122 1.96
  82  0.026  0.890  0.526- 126 1.95 130 1.95 118 1.96 129 1.96
  83  0.526  0.390  0.526- 124 1.95 120 1.95 125 1.96 128 1.96
  84  0.474  0.390  0.026- 131 1.95 132 1.95 123 1.96 121 1.96
  85  0.354  0.125  0.278-  60 1.09
  86  0.788  0.550  0.270-  55 1.09
  87  0.790  0.230  0.783-  56 1.09
  88  0.711  0.051  0.770-  49 1.09
  89  0.710  0.730  0.284-  61 1.09
  90  0.645  0.655  0.276-  52 1.09
  91  0.146  0.625  0.779-  58 1.09
  92  0.145  0.155  0.275-  59 1.09
  93  0.854  0.625  0.279-  51 1.09
  94  0.211  0.230  0.284-  63 1.09
  95  0.212  0.551  0.771-  57 1.09
  96  0.289  0.729  0.783-  54 1.09
  97  0.355  0.655  0.775-  64 1.09
  98  0.646  0.125  0.779-  53 1.09
  99  0.855  0.155  0.775-  50 1.09
 100  0.288  0.051  0.270-  62 1.09
 101  0.539  0.491  0.047-   7 1.08
 102  0.460  0.289  0.505-  12 1.08
 103  0.339  0.465  0.985-  16 1.09
 104  0.161  0.815  0.568-  10 1.09
 105  0.039  0.991  0.047-  11 1.08
 106  0.338  0.315  0.069-  15 1.09
 107  0.839  0.965  0.984-   1 1.09
 108  0.960  0.789  0.505-  13 1.08
 109  0.161  0.965  0.483-  14 1.09
 110  0.662  0.465  0.484-   4 1.09
 111  0.540  0.289  0.004-   5 1.08
 112  0.960  0.991  0.547-   2 1.08
 113  0.661  0.315  0.567-   8 1.09
 114  0.461  0.491  0.548-   9 1.08
 115  0.040  0.789  0.004-   6 1.08
 116  0.838  0.815  0.069-   3 1.09
 117  0.922  0.929  0.189-   1 1.35 118 1.37  81 1.95
 118  0.961  0.938  0.362-   2 1.35 117 1.37  82 1.96
 119  0.922  0.851  0.865-   3 1.35 129 1.37  81 1.95
 120  0.578  0.429  0.688-   4 1.35 123 1.37  83 1.95
 121  0.539  0.342  0.190-   5 1.35 124 1.37  84 1.96
 122  0.039  0.842  0.190-   6 1.35 126 1.37  81 1.96
 123  0.539  0.438  0.862-   7 1.35 120 1.37  84 1.96
 124  0.578  0.351  0.364-   8 1.35 121 1.37  83 1.95
 125  0.461  0.438  0.363-   9 1.35 132 1.37  83 1.96
 126  0.078  0.851  0.364-  10 1.35 122 1.37  82 1.95
 127  0.039  0.938  0.862-  11 1.35 130 1.37  81 1.96
 128  0.461  0.342  0.690-  12 1.35 131 1.37  83 1.96
 129  0.961  0.842  0.690-  13 1.35 119 1.37  82 1.96
 130  0.078  0.929  0.688-  14 1.35 127 1.37  82 1.95
 131  0.422  0.351  0.864-  15 1.35 128 1.37  84 1.95
 132  0.422  0.429  0.189-  16 1.35 125 1.37  84 1.95
 133  0.843  0.036  0.265-  18 1.42  17 1.42  65 1.42
 134  0.842  0.744  0.788-  19 1.42  29 1.42  66 1.42
 135  0.657  0.536  0.765-  20 1.42  23 1.42  67 1.42
 136  0.658  0.244  0.287-  21 1.42  24 1.42  68 1.42
 137  0.158  0.744  0.287-  26 1.42  22 1.42  69 1.42
 138  0.343  0.536  0.266-  32 1.42  25 1.42  70 1.42
 139  0.157  0.036  0.765-  27 1.42  30 1.42  71 1.42
 140  0.342  0.244  0.788-  28 1.42  31 1.42  72 1.42
 141  0.795  0.001  0.609-  17 1.23
 142  0.890  0.071  0.920-  18 1.23
 143  0.888  0.709  0.134-  19 1.23
 144  0.611  0.571  0.420-  20 1.23
 145  0.612  0.209  0.633-  21 1.23
 146  0.205  0.779  0.942-  22 1.23
 147  0.705  0.501  0.109-  23 1.23
 148  0.705  0.279  0.942-  24 1.23
 149  0.296  0.501  0.611-  25 1.23
 150  0.111  0.709  0.633-  26 1.23
 151  0.111  0.071  0.419-  27 1.23
 152  0.388  0.209  0.133-  28 1.23
 153  0.795  0.779  0.444-  29 1.23
 154  0.204  0.001  0.109-  30 1.23
 155  0.295  0.279  0.444-  31 1.23
 156  0.390  0.571  0.921-  32 1.23
 

IMPORTANT INFORMATION: All symmetrisations will be switched off!
NOSYMM: (Re-)initialisation of all symmetry stuff for point group C_1.


----------------------------------------------------------------------------------------

                                     Primitive cell                                     

  volume of cell :    3312.3362

  direct lattice vectors                    reciprocal lattice vectors
    18.888714966 -0.002922947  0.015429570     0.052941698  0.000003883 -0.000041027
     0.000552288 29.240070680  3.479760395     0.000008662  0.034679691 -0.004033788
     0.004660913  0.707366737  6.081454917    -0.000139277 -0.019843455  0.166742542

  length of vectors
    18.888721494 29.446399883  6.122457295     0.052941714  0.034913500  0.167919199

  position of ions in fractional coordinates (direct lattice)
     0.873836093  0.963716834  0.126158337
     0.937576724  0.977314457  0.411858505
     0.873510329  0.816240485  0.927142388
     0.626192006  0.463606868  0.625983161
     0.562746540  0.302721984  0.139796438
     0.062632749  0.802678969  0.139925393
     0.562131731  0.477289098  0.911427485
     0.626329037  0.316409236  0.425643997
     0.437921533  0.477337197  0.412307121
     0.126021031  0.816289269  0.426314067
     0.061981087  0.977329463  0.911683425
     0.437259408  0.302643114  0.640530134
     0.937101856  0.802646611  0.640537421
     0.125755177  0.963848417  0.625228669
     0.373599911  0.316274199  0.926897254
     0.374039381  0.463793673  0.126777441
     0.799736422  0.035941547  0.454878876
     0.851804068  0.074444819  0.079162606
     0.850614432  0.705728769  0.974247691
     0.648275178  0.574375384  0.579528140
     0.649215681  0.205946339  0.473442343
     0.200758758  0.744271681  0.097467690
     0.700193022  0.535734772  0.954708894
     0.700978427  0.244359079  0.097049628
     0.300112851  0.535984141  0.456064489
     0.148894913  0.705802555  0.473595573
     0.148101333  0.074516715  0.579118398
     0.350710355  0.205720492  0.973908388
     0.798978594  0.744269092  0.598414490
     0.199787173  0.035885318  0.954652944
     0.299070850  0.244316096  0.598196819
     0.352013344  0.574478539  0.080072257
     0.760969281  0.079697089  0.454669912
     0.813442665  0.117849193  0.089045672
     0.812233505  0.662344577  0.964300565
     0.686638242  0.617762888  0.589655073
     0.687631392  0.162558050  0.463743600
     0.239842112  0.700611016  0.098250676
     0.738948189  0.579487380  0.954750185
     0.740001943  0.200681311  0.097836985
     0.261212945  0.579710651  0.455716452
     0.187555139  0.662485991  0.464229310
     0.186499417  0.117887496  0.589304769
     0.312173041  0.162382277  0.964069006
     0.759993165  0.700583190  0.598970716
     0.238641155  0.079603211  0.954661130
     0.260025569  0.200656821  0.598647088
     0.313523577  0.617844781  0.089807313
     0.716689884  0.081835132  0.633552971
     0.820975946  0.157291668  0.914753227
     0.819601302  0.622857163  0.138379538
     0.679175956  0.657255260  0.415701200
     0.680210075  0.123130559  0.638213630
     0.284150663  0.698487184  0.919429756
     0.783135561  0.581566775  0.133509092
     0.784402653  0.198563910  0.919213350
     0.216898027  0.581827469  0.634552401
     0.180234099  0.623076410  0.638850510
     0.179186594  0.157370834  0.415208279
     0.319445563  0.122891613  0.138198629
     0.715712852  0.698523847  0.420411202
     0.282843675  0.081647598  0.133432078
     0.215792822  0.198614110  0.419952448
     0.320846112  0.657247535  0.915175112
     0.882130446  0.994838269  0.265807150
     0.881558663  0.785196368  0.786992990
     0.617813999  0.494739697  0.765596368
     0.618300178  0.285333674  0.285725569
     0.118076112  0.785239673  0.286209463
     0.382406171  0.494884033  0.266551104
     0.117480697  0.994902257  0.765304041
     0.381673241  0.285207863  0.786868744
     0.769091724  0.119236089  0.274087987
     0.768024204  0.661002586  0.779327810
     0.730885833  0.619089136  0.774574652
     0.731911324  0.161154958  0.278571748
     0.231906183  0.661111277  0.279196552
     0.269211729  0.619228683  0.274929388
     0.230699825  0.119195209  0.774364275
     0.267945075  0.161078239  0.779086841
     0.973520331  0.889868079  0.026345926
     0.026083627  0.889934758  0.526181332
     0.526318529  0.389899257  0.526184056
     0.473568317  0.389885657  0.026424718
     0.353829029  0.124922350  0.278435388
     0.788358343  0.550475885  0.269606229
     0.789688719  0.229604066  0.782856206
     0.711406308  0.050788496  0.769900546
     0.710483682  0.729596379  0.284277212
     0.644759790  0.655154516  0.275674538
     0.145740484  0.625193179  0.779050163
     0.144833648  0.155297494  0.274981463
     0.853942461  0.624917332  0.278687959
     0.210669247  0.229682613  0.283760111
     0.211692936  0.550810492  0.771110251
     0.289271188  0.729480104  0.782724335
     0.355284465  0.655107914  0.774892256
     0.645811436  0.125261712  0.778589641
     0.855482324  0.155163292  0.774629049
     0.287978649  0.050563117  0.269588034
     0.539260152  0.490667765  0.046595388
     0.459903468  0.289303168  0.504895470
     0.338808908  0.465361459  0.985163468
     0.161065048  0.814777699  0.568341458
     0.039254891  0.990609641  0.047368018
     0.338428756  0.314765195  0.068958240
     0.838660213  0.965256886  0.984423783
     0.959704897  0.789329673  0.504781964
     0.160948765  0.965438902  0.483149263
     0.661537498  0.465081453  0.484363230
     0.540171465  0.289376713  0.004277167
     0.960313343  0.990648742  0.547159845
     0.661476360  0.314925883  0.567400342
     0.460735346  0.490654055  0.547557418
     0.040126174  0.789359997  0.004231519
     0.838366884  0.814696298  0.069300088
     0.921662128  0.929097093  0.188556679
     0.960876509  0.937633266  0.362447241
     0.921572424  0.850745621  0.864666226
     0.578193600  0.429049249  0.688243950
     0.539111911  0.342288940  0.189599739
     0.038985428  0.842248101  0.189686065
     0.538789800  0.437629307  0.862012673
     0.578242885  0.350873675  0.363563732
     0.461172851  0.437667882  0.362654954
     0.077998502  0.850788378  0.363977843
     0.038651311  0.937682748  0.862112487
     0.460863021  0.342219269  0.690170285
     0.960705277  0.842219797  0.690222103
     0.077884965  0.929220299  0.687741245
     0.421687490  0.350768110  0.864497356
     0.421872600  0.429170120  0.188844225
     0.842801121  0.036084851  0.265121236
     0.841983297  0.744044652  0.787961781
     0.657215961  0.535950755  0.765084226
     0.657864548  0.244183418  0.286728081
     0.157665629  0.744096689  0.287180115
     0.343090636  0.536127326  0.266109434
     0.156876046  0.036112268  0.764872869
     0.342065799  0.244067274  0.787787878
     0.795048592  0.001023680  0.609477023
     0.889515301  0.071335984  0.919606013
     0.888094554  0.708868248  0.133942125
     0.610607415  0.571337629  0.420117685
     0.611695100  0.209133976  0.633327942
     0.205170174  0.779136122  0.942447971
     0.704798804  0.500761762  0.108978854
     0.705439823  0.279229574  0.942106719
     0.295580060  0.501097893  0.610896516
     0.111101343  0.708893275  0.633015217
     0.110541226  0.071467323  0.419471177
     0.388312995  0.208790032  0.133426286
     0.794584963  0.779180991  0.443736819
     0.204283718  0.000927606  0.109036535
     0.294724016  0.279231072  0.443518968
     0.389745487  0.571391086  0.920522947

  ion indices of the primitive-cell ions
   primitive index   ion index
                 1           1
                 2           2
                 3           3
                 4           4
                 5           5
                 6           6
                 7           7
                 8           8
                 9           9
                10          10
                11          11
                12          12
                13          13
                14          14
                15          15
                16          16
                17          17
                18          18
                19          19
                20          20
                21          21
                22          22
                23          23
                24          24
                25          25
                26          26
                27          27
                28          28
                29          29
                30          30
                31          31
                32          32
                33          33
                34          34
                35          35
                36          36
                37          37
                38          38
                39          39
                40          40
                41          41
                42          42
                43          43
                44          44
                45          45
                46          46
                47          47
                48          48
                49          49
                50          50
                51          51
                52          52
                53          53
                54          54
                55          55
                56          56
                57          57
                58          58
                59          59
                60          60
                61          61
                62          62
                63          63
                64          64
                65          65
                66          66
                67          67
                68          68
                69          69
                70          70
                71          71
                72          72
                73          73
                74          74
                75          75
                76          76
                77          77
                78          78
                79          79
                80          80
                81          81
                82          82
                83          83
                84          84
                85          85
                86          86
                87          87
                88          88
                89          89
                90          90
                91          91
                92          92
                93          93
                94          94
                95          95
                96          96
                97          97
                98          98
                99          99
               100         100
               101         101
               102         102
               103         103
               104         104
               105         105
               106         106
               107         107
               108         108
               109         109
               110         110
               111         111
               112         112
               113         113
               114         114
               115         115
               116         116
               117         117
               118         118
               119         119
               120         120
               121         121
               122         122
               123         123
               124         124
               125         125
               126         126
               127         127
               128         128
               129         129
               130         130
               131         131
               132         132
               133         133
               134         134
               135         135
               136         136
               137         137
               138         138
               139         139
               140         140
               141         141
               142         142
               143         143
               144         144
               145         145
               146         146
               147         147
               148         148
               149         149
               150         150
               151         151
               152         152
               153         153
               154         154
               155         155
               156         156

----------------------------------------------------------------------------------------

 
 

Automatic generation of k-mesh.
 generate k-points for:    2    1    4
Space group operators:
 irot       det(A)        alpha          n_x          n_y          n_z        tau_x        tau_y        tau_z
    1     1.000000     0.000000     1.000000     0.000000     0.000000     0.000000     0.000000     0.000000
 
 Subroutine IBZKPT returns following result:
 ===========================================
 
 Found      6 irreducible k-points:
 
 Following reciprocal coordinates:
            Coordinates               Weight
  0.000000  0.000000  0.000000      1.000000
  0.500000 -0.000000 -0.000000      1.000000
 -0.000000  0.000000  0.250000      2.000000
  0.500000  0.000000  0.250000      2.000000
 -0.000000  0.000000  0.500000      1.000000
  0.500000  0.000000  0.500000      1.000000
 
 Following cartesian coordinates:
            Coordinates               Weight
  0.000000  0.000000  0.000000      1.000000
  0.026471  0.000002 -0.000021      1.000000
 -0.000035 -0.004961  0.041686      2.000000
  0.026436 -0.004959  0.041665      2.000000
 -0.000070 -0.009922  0.083371      1.000000
  0.026401 -0.009920  0.083351      1.000000
 


--------------------------------------------------------------------------------------------------------




 Dimension of arrays:
   k-points           NKPTS =      6   k-points in BZ     NKDIM =      6   number of bands    NBANDS=    384
   number of dos      NEDOS =    301   number of ions     NIONS =    156
   non local maximal  LDIM  =      6   non local SUM 2l+1 LMDIM =     18
   total plane-waves  NPLWV = 864000
   max r-space proj   IRMAX =   2487   max aug-charges    IRDMAX=  10486
   dimension x,y,z NGX =   120 NGY =  180 NGZ =   40
   dimension x,y,z NGXF=   240 NGYF=  360 NGZF=   80
   support grid    NGXF=   240 NGYF=  360 NGZF=   80
   ions per type =              80   4  32  24  16
   NGX,Y,Z   is equivalent  to a cutoff of  10.56, 10.16, 10.86 a.u.
   NGXF,Y,Z  is equivalent  to a cutoff of  21.12, 20.32, 21.72 a.u.

 SYSTEM =  flex_MOF                                
 POSCAR =  CoH_5	                                  

 Startparameter for this run:
   NWRITE =      2    write-flag & timer
   PREC   = normal    normal or accurate (medium, high low for compatibility)
   ISTART =      0    job   : 0-new  1-cont  2-samecut
   ICHARG =      2    charge: 1-file 2-atom 10-const
   ISPIN  =      2    spin polarized calculation?
   LNONCOLLINEAR =      F non collinear calculations
   LSORBIT =      F    spin-orbit coupling
   INIWAV =      1    electr: 0-lowe 1-rand  2-diag
   LASPH  =      F    aspherical Exc in radial PAW
   METAGGA=      F    non-selfconsistent MetaGGA calc.

 Electronic Relaxation 1
   ENCUT  =  600.0 eV  44.10 Ry    6.64 a.u.  37.73 58.81 12.23*2*pi/ulx,y,z
   ENINI  =  600.0     initial cutoff
   ENAUG  =  644.9 eV  augmentation charge cutoff
   NELM   =     80;   NELMIN=  8; NELMDL= -5     # of ELM steps 
   EDIFF  = 0.1E-05   stopping-criterion for ELM
   LREAL  =      T    real-space projection
   NLSPLINE    = F    spline interpolate recip. space projectors
   LCOMPAT=      F    compatible to vasp.4.4
   GGA_COMPAT  = T    GGA compatible to vasp.4.4-vasp.4.6
   LMAXPAW     = -100 max onsite density
   LMAXMIX     =    2 max onsite mixed and CHGCAR
   VOSKOWN=      0    Vosko Wilk Nusair interpolation
   ROPT   =   -0.00050  -0.00050  -0.00050  -0.00050
   ROPT   =   -0.00050
 Ionic relaxation
   EDIFFG = -.1E-01   stopping-criterion for IOM
   NSW    =    500    number of steps for IOM
   NBLOCK =      1;   KBLOCK =    500    inner block; outer block 
   IBRION =      2    ionic relax: 0-MD 1-quasi-New 2-CG
   NFREE  =      1    steps in history (QN), initial steepest desc. (CG)
   ISIF   =      4    stress and relaxation
   IWAVPR =     11    prediction:  0-non 1-charg 2-wave 3-comb
   ISYM   =      0    0-nonsym 1-usesym 2-fastsym
   LCORR  =      T    Harris-Foulkes like correction to forces

   POTIM  = 0.5000    time-step for ionic-motion
   TEIN   =    0.0    initial temperature
   TEBEG  =    0.0;   TEEND  =   0.0 temperature during run
   SMASS  =  -3.00    Nose mass-parameter (am)
   estimated Nose-frequenzy (Omega)   =  0.10E-29 period in steps = 0.13E+47 mass=  -0.815E-26a.u.
   SCALEE = 1.0000    scale energy and forces
   NPACO  =    256;   APACO  = 16.0  distance and # of slots for P.C.
   PSTRESS=    0.0 pullay stress

  Mass of Ions in am
   POMASS =  12.01 58.93  1.00 14.00 16.00
  Ionic Valenz
   ZVAL   =   4.00  9.00  1.00  5.00  6.00
  Atomic Wigner-Seitz radii
   RWIGS  =  -1.00 -1.00 -1.00 -1.00 -1.00
  virtual crystal weights 
   VCA    =   1.00  1.00  1.00  1.00  1.00
   NELECT =     604.0000    total number of electrons
   NUPDOWN=      -1.0000    fix difference up-down

 DOS related values:
   EMIN   =  10.00;   EMAX   =-10.00  energy-range for DOS
   EFERMI =   0.00
   ISMEAR =     0;   SIGMA  =   0.05  broadening in eV -4-tet -1-fermi 0-gaus

 Electronic relaxation 2 (details)
   IALGO  =     38    algorithm
   LDIAG  =      T    sub-space diagonalisation (order eigenvalues)
   LSUBROT=      F    optimize rotation matrix (better conditioning)
   TURBO    =      0    0=normal 1=particle mesh
   IRESTART =      0    0=no restart 2=restart with 2 vectors
   NREBOOT  =      0    no. of reboots
   NMIN     =      0    reboot dimension
   EREF     =   0.00    reference energy to select bands
   IMIX   =      4    mixing-type and parameters
     AMIX     =   0.40;   BMIX     =  1.00
     AMIX_MAG =   1.60;   BMIX_MAG =  1.00
     AMIN     =   0.10
     WC   =   100.;   INIMIX=   1;  MIXPRE=   1;  MAXMIX= -45

 Intra band minimization:
   WEIMIN = 0.0010     energy-eigenvalue tresh-hold
   EBREAK =  0.65E-09  absolut break condition
   DEPER  =   0.30     relativ break condition  

   TIME   =   0.40     timestep for ELM

  volume/ion in A,a.u.               =      21.23       143.29
  Fermi-wavevector in a.u.,A,eV,Ry     =   0.928344  1.754316 11.725812  0.861823
  Thomas-Fermi vector in A             =   2.054511
 
 Write flags
   LWAVE        =      T    write WAVECAR
   LDOWNSAMPLE  =      F    k-point downsampling of WAVECAR
   LCHARG       =      T    write CHGCAR
   LVTOT        =      F    write LOCPOT, total local potential
   LVHAR        =      F    write LOCPOT, Hartree potential only
   LELF         =      F    write electronic localiz. function (ELF)
   LORBIT       =     11    0 simple, 1 ext, 2 COOP (PROOUT), +10 PAW based schemes


 Dipole corrections
   LMONO  =      F    monopole corrections only (constant potential shift)
   LDIPOL =      F    correct potential (dipole corrections)
   IDIPOL =      0    1-x, 2-y, 3-z, 4-all directions 
   EPSILON=  1.0000000 bulk dielectric constant

 Exchange correlation treatment:
   GGA     =    PE    GGA type
   LEXCH   =     8    internal setting for exchange type
   VOSKOWN=      0    Vosko Wilk Nusair interpolation
   LHFCALC =     F    Hartree Fock is set to
   LHFONE  =     F    Hartree Fock one center treatment
   AEXX    =    0.0000 exact exchange contribution

 Linear response parameters
   LEPSILON=     F    determine dielectric tensor
   LRPA    =     F    only Hartree local field effects (RPA)
   LNABLA  =     F    use nabla operator in PAW spheres
   LVEL    =     F    velocity operator in full k-point grid
   LINTERFAST=   F  fast interpolation
   KINTER  =     0    interpolate to denser k-point grid
   CSHIFT  =0.1000    complex shift for real part using Kramers Kronig
   OMEGAMAX=  -1.0    maximum frequency
   DEG_THRESHOLD= 0.2000000E-02 threshold for treating states as degnerate
   RTIME   =   -0.100 relaxation time in fs
  (WPLASMAI=    0.000 imaginary part of plasma frequency in eV, 0.658/RTIME)
   DFIELD  = 0.0000000 0.0000000 0.0000000 field for delta impulse in time
 
 Orbital magnetization related:
   ORBITALMAG=     F  switch on orbital magnetization
   LCHIMAG   =     F  perturbation theory with respect to B field
   DQ        =  0.001000  dq finite difference perturbation B field
   LLRAUG    =     F  two centre corrections for induced B field



--------------------------------------------------------------------------------------------------------


 conjugate gradient relaxation of ions
 charge density and potential will be updated during run
 spin polarized calculation
 Variant of blocked Davidson
 Davidson routine will perform the subspace rotation
 perform sub-space diagonalisation
    after iterative eigenvector-optimisation
 modified Broyden-mixing scheme, WC =      100.0
 initial mixing is a Kerker type mixing with AMIX =  0.4000 and BMIX =      1.0000
 Hartree-type preconditioning will be used
 using additional bands           82
 real space projection scheme for non local part
 use partial core corrections
 calculate Harris-corrections to forces 
   (improved forces if not selfconsistent)
 use gradient corrections 
 use of overlap-Matrix (Vanderbilt PP)
 Gauss-broadening in eV      SIGMA  =   0.05


--------------------------------------------------------------------------------------------------------


  energy-cutoff  :      600.00
  volume of cell :     3312.34
      direct lattice vectors                 reciprocal lattice vectors
    18.888714966 -0.002922947  0.015429570     0.052941698  0.000003883 -0.000041027
     0.000552288 29.240070680  3.479760395     0.000008662  0.034679691 -0.004033788
     0.004660913  0.707366737  6.081454917    -0.000139277 -0.019843455  0.166742542

  length of vectors
    18.888721494 29.446399883  6.122457295     0.052941714  0.034913500  0.167919199


 
 k-points in units of 2pi/SCALE and weight: read from INCAR                         
   0.00000000  0.00000000  0.00000000       0.125
   0.02647085  0.00000194 -0.00002051       0.125
  -0.00003482 -0.00496086  0.04168564       0.250
   0.02643603 -0.00495892  0.04166512       0.250
  -0.00006964 -0.00992173  0.08337127       0.125
   0.02640121 -0.00991979  0.08335076       0.125
 
 k-points in reciprocal lattice and weights: read from INCAR                         
   0.00000000  0.00000000  0.00000000       0.125
   0.50000000 -0.00000000 -0.00000000       0.125
  -0.00000000  0.00000000  0.25000000       0.250
   0.50000000  0.00000000  0.25000000       0.250
  -0.00000000  0.00000000  0.50000000       0.125
   0.50000000  0.00000000  0.50000000       0.125
 
 position of ions in fractional coordinates (direct lattice) 
   0.87383609  0.96371683  0.12615834
   0.93757672  0.97731446  0.41185850
   0.87351033  0.81624048  0.92714239
   0.62619201  0.46360687  0.62598316
   0.56274654  0.30272198  0.13979644
   0.06263275  0.80267897  0.13992539
   0.56213173  0.47728910  0.91142749
   0.62632904  0.31640924  0.42564400
   0.43792153  0.47733720  0.41230712
   0.12602103  0.81628927  0.42631407
   0.06198109  0.97732946  0.91168342
   0.43725941  0.30264311  0.64053013
   0.93710186  0.80264661  0.64053742
   0.12575518  0.96384842  0.62522867
   0.37359991  0.31627420  0.92689725
   0.37403938  0.46379367  0.12677744
   0.79973642  0.03594155  0.45487888
   0.85180407  0.07444482  0.07916261
   0.85061443  0.70572877  0.97424769
   0.64827518  0.57437538  0.57952814
   0.64921568  0.20594634  0.47344234
   0.20075876  0.74427168  0.09746769
   0.70019302  0.53573477  0.95470889
   0.70097843  0.24435908  0.09704963
   0.30011285  0.53598414  0.45606449
   0.14889491  0.70580256  0.47359557
   0.14810133  0.07451671  0.57911840
   0.35071035  0.20572049  0.97390839
   0.79897859  0.74426909  0.59841449
   0.19978717  0.03588532  0.95465294
   0.29907085  0.24431610  0.59819682
   0.35201334  0.57447854  0.08007226
   0.76096928  0.07969709  0.45466991
   0.81344267  0.11784919  0.08904567
   0.81223350  0.66234458  0.96430057
   0.68663824  0.61776289  0.58965507
   0.68763139  0.16255805  0.46374360
   0.23984211  0.70061102  0.09825068
   0.73894819  0.57948738  0.95475019
   0.74000194  0.20068131  0.09783699
   0.26121295  0.57971065  0.45571645
   0.18755514  0.66248599  0.46422931
   0.18649942  0.11788750  0.58930477
   0.31217304  0.16238228  0.96406901
   0.75999316  0.70058319  0.59897072
   0.23864115  0.07960321  0.95466113
   0.26002557  0.20065682  0.59864709
   0.31352358  0.61784478  0.08980731
   0.71668988  0.08183513  0.63355297
   0.82097595  0.15729167  0.91475323
   0.81960130  0.62285716  0.13837954
   0.67917596  0.65725526  0.41570120
   0.68021008  0.12313056  0.63821363
   0.28415066  0.69848718  0.91942976
   0.78313556  0.58156678  0.13350909
   0.78440265  0.19856391  0.91921335
   0.21689803  0.58182747  0.63455240
   0.18023410  0.62307641  0.63885051
   0.17918659  0.15737083  0.41520828
   0.31944556  0.12289161  0.13819863
   0.71571285  0.69852385  0.42041120
   0.28284368  0.08164760  0.13343208
   0.21579282  0.19861411  0.41995245
   0.32084611  0.65724754  0.91517511
   0.88213045  0.99483827  0.26580715
   0.88155866  0.78519637  0.78699299
   0.61781400  0.49473970  0.76559637
   0.61830018  0.28533367  0.28572557
   0.11807611  0.78523967  0.28620946
   0.38240617  0.49488403  0.26655110
   0.11748070  0.99490226  0.76530404
   0.38167324  0.28520786  0.78686874
   0.76909172  0.11923609  0.27408799
   0.76802420  0.66100259  0.77932781
   0.73088583  0.61908914  0.77457465
   0.73191132  0.16115496  0.27857175
   0.23190618  0.66111128  0.27919655
   0.26921173  0.61922868  0.27492939
   0.23069983  0.11919521  0.77436427
   0.26794507  0.16107824  0.77908684
   0.97352033  0.88986808  0.02634593
   0.02608363  0.88993476  0.52618133
   0.52631853  0.38989926  0.52618406
   0.47356832  0.38988566  0.02642472
   0.35382903  0.12492235  0.27843539
   0.78835834  0.55047589  0.26960623
   0.78968872  0.22960407  0.78285621
   0.71140631  0.05078850  0.76990055
   0.71048368  0.72959638  0.28427721
   0.64475979  0.65515452  0.27567454
   0.14574048  0.62519318  0.77905016
   0.14483365  0.15529749  0.27498146
   0.85394246  0.62491733  0.27868796
   0.21066925  0.22968261  0.28376011
   0.21169294  0.55081049  0.77111025
   0.28927119  0.72948010  0.78272434
   0.35528446  0.65510791  0.77489226
   0.64581144  0.12526171  0.77858964
   0.85548232  0.15516329  0.77462905
   0.28797865  0.05056312  0.26958803
   0.53926015  0.49066776  0.04659539
   0.45990347  0.28930317  0.50489547
   0.33880891  0.46536146  0.98516347
   0.16106505  0.81477770  0.56834146
   0.03925489  0.99060964  0.04736802
   0.33842876  0.31476520  0.06895824
   0.83866021  0.96525689  0.98442378
   0.95970490  0.78932967  0.50478196
   0.16094876  0.96543890  0.48314926
   0.66153750  0.46508145  0.48436323
   0.54017146  0.28937671  0.00427717
   0.96031334  0.99064874  0.54715984
   0.66147636  0.31492588  0.56740034
   0.46073535  0.49065406  0.54755742
   0.04012617  0.78936000  0.00423152
   0.83836688  0.81469630  0.06930009
   0.92166213  0.92909709  0.18855668
   0.96087651  0.93763327  0.36244724
   0.92157242  0.85074562  0.86466623
   0.57819360  0.42904925  0.68824395
   0.53911191  0.34228894  0.18959974
   0.03898543  0.84224810  0.18968606
   0.53878980  0.43762931  0.86201267
   0.57824289  0.35087368  0.36356373
   0.46117285  0.43766788  0.36265495
   0.07799850  0.85078838  0.36397784
   0.03865131  0.93768275  0.86211249
   0.46086302  0.34221927  0.69017029
   0.96070528  0.84221980  0.69022210
   0.07788497  0.92922030  0.68774125
   0.42168749  0.35076811  0.86449736
   0.42187260  0.42917012  0.18884423
   0.84280112  0.03608485  0.26512124
   0.84198330  0.74404465  0.78796178
   0.65721596  0.53595076  0.76508423
   0.65786455  0.24418342  0.28672808
   0.15766563  0.74409669  0.28718011
   0.34309064  0.53612733  0.26610943
   0.15687605  0.03611227  0.76487287
   0.34206580  0.24406727  0.78778788
   0.79504859  0.00102368  0.60947702
   0.88951530  0.07133598  0.91960601
   0.88809455  0.70886825  0.13394213
   0.61060742  0.57133763  0.42011768
   0.61169510  0.20913398  0.63332794
   0.20517017  0.77913612  0.94244797
   0.70479880  0.50076176  0.10897885
   0.70543982  0.27922957  0.94210672
   0.29558006  0.50109789  0.61089652
   0.11110134  0.70889327  0.63301522
   0.11054123  0.07146732  0.41947118
   0.38831299  0.20879003  0.13342629
   0.79458496  0.77918099  0.44373682
   0.20428372  0.00092761  0.10903653
   0.29472402  0.27923107  0.44351897
   0.38974549  0.57139109  0.92052295
 
 position of ions in cartesian coordinates  (Angst):
  16.50676115 28.26583436  4.13421283
  17.71207889 28.86533833  5.91998548
  16.50425976 24.52020592  8.49217383
  11.83113601 13.99686693  5.42979106
  10.63037777  8.94885468  1.91224864
   1.18414763 23.56918529  3.64504685
  10.62245773 14.59903735  7.21233031
  11.83270928  9.55108409  3.69922709
   8.27396036 14.24774569  4.17520318
   2.38281317 24.16954796  5.43504530
   1.17553213 29.22189594  8.94619034
   8.26242093  9.30111768  4.95522738
  17.70407863 23.91979941  6.70287641
   2.37880016 28.62489421  7.15820186
   7.06131709  9.90244421  6.74320678
   7.06597030 13.64994464  2.39065341
  15.10813332  1.37036197  2.90373294
  16.08989433  2.23027899  0.75361693
  16.07194420 21.32222319  8.39373505
  12.24810341 17.20282087  5.53306557
  12.26517037  6.35488524  3.60587929
   3.79294030 21.83091515  3.18573010
  13.23049211 16.33820528  7.68105142
  13.24116900  7.21167750  1.45132978
   5.67116779 15.99394181  4.64326263
   2.81503076 20.97228715  5.33847129
   2.80018424  2.58809021  3.78346788
   6.62912084  6.70316702  6.64404928
  15.09487913 22.18344398  6.24143675
   3.77819234  1.72399499  5.93363377
   5.65198712  7.56609028  4.49268299
   6.64977021 16.85340461  2.49143490
  14.37589504  2.64974261  3.05412277
  15.36536676  3.50652902  0.96416526
  15.34690748 20.04674228  8.18168326
  12.97280355 18.47852589  5.74622211
  12.99072461  5.07923577  3.39650872
   4.53115417 20.55471383  3.03916618
  13.96255176 17.61745057  7.83414910
  13.97825263  5.93497937  1.30473201
   4.93642109 17.27237555  4.79270363
   3.54520517 19.69896937  5.13137603
   3.52554614  3.86334817  3.99692823
   5.90113071  5.42910713  6.43281031
  14.35847293 20.90657255  6.09220141
   4.51211831  3.00220152  6.08641085
   4.91444991  6.28992262  4.34289502
   5.92281729 18.12843536  2.70094846
  13.54034907  2.83892451  4.14874870
  15.51153109  5.24388584  6.12303514
  15.48220434 18.30787689  3.02158870
  12.83106158 19.51025826  4.82563832
  12.85133689  4.04980912  4.32022761
   5.37191202 21.07335808  8.02642297
  14.79336786 17.09720444  2.84772600
  14.82075217  6.45395095  6.29321237
   4.10020393 17.46090360  5.88696864
   3.40771227 18.67017306  6.05607813
   3.38662667  4.89471507  3.07544799
   6.03462820  3.69018285  1.27301101
  13.52124134 20.72017956  4.99845053
   5.34322057  2.48094020  1.09993940
   4.07811615  6.10392026  3.24838099
   6.06499930 19.86439100  7.85761064
  16.66409889 29.27458603  5.09190390
  16.65561208 23.51331321  7.53195968
  11.67355415 15.00597527  6.38704801
  11.68038516  8.54348231  2.74006009
   2.23207369 23.16257345  4.47483772
   7.22467685 14.65787574  3.34899674
   2.22317588 29.63201955  8.11799617
   7.21314211  8.89498725  5.78365087
  14.52849771  3.67810438  2.09363351
  14.51098772 19.87678801  7.05142784
  13.80944631 18.64798209  6.87609994
  13.82625178  4.90709541  2.26619525
   4.38207623 19.52775697  4.00200829
   5.08668704 18.29997948  3.83089195
   4.36129831  4.03236155  5.12759179
   5.06485836  5.26025601  5.30262945
  18.38916230 26.03559621  3.27177026
   0.49563017 26.39388217  6.29711023
   9.94414851 11.77134853  4.56484147
   8.94543544 11.41759191  1.52471636
   6.68474242  3.84866006  2.13345153
  14.89263666 16.28435994  3.56728634
  14.91998076  7.26509735  5.57205642
  13.44116746  2.02758186  4.86982396
  13.42185170 21.53246122  4.27860209
  12.18033062 19.34988274  3.96623138
   2.75682684 18.83134092  6.91552962
   2.73708894  4.73499911  2.21492016
  16.13151981 18.46726553  3.88256681
   3.98072079  6.91604253  2.52816532
   4.00250582 16.65057669  6.60942709
   5.46801210 21.88287744  7.30298206
   6.71484050 19.70249625  6.99757278
  12.20224625  4.21152205  5.18080314
  16.16265794  5.08243193  5.26400244
   5.44083108  1.66832497  1.81987839
  10.18641948 14.37854392  1.99909456
   8.68949857  8.81504707  4.08430085
   6.40451366 14.30308349  7.61580127
   3.04541076 24.22571255  6.29405928
   0.74224233 28.99888775  3.73575635
   6.39297957  9.25154612  1.51989570
  15.84633513 28.91807686  9.35853170
  18.13038094 23.43431623  5.83129472
   3.04290046 28.57079501  6.30022989
  12.49810768 13.93970336  4.57421241
  10.20332458  8.46284218  1.04130764
  18.14218239 29.35087498  6.78956541
  12.49725695  9.60788174  4.55669251
   8.70552173 14.73273645  5.04441325
   0.75838754 23.08381807  2.77313658
  15.83644606 23.86834742  3.26932892
  17.41040520 27.29754942  4.39395506
  18.15192967 27.67003749  5.48177157
  17.41181882 25.48480451  8.23303906
  10.92477891 13.03058122  5.68743442
  10.18420396 10.14109354  2.35244403
   0.73773391 24.76145766  4.08499036
  10.18130643 13.40449609  6.77344964
  10.92415336 10.51505378  3.44087480
   8.71289455 13.05262187  3.73556482
   1.47545783 25.13435014  5.17525803
   0.73460969 28.02762654  8.50640588
   8.70851607 10.49337203  5.39519145
  18.15017035 25.11199845  7.14310096
   1.47486561 27.65672486  7.41713310
   7.96935788 10.86676844  6.48449713
   7.96974850 12.68131365  2.64836614
  15.92068577  1.24019808  1.75089354
  15.90806606 22.31083511  7.39404260
  12.41782695 16.21051209  6.52794600
  12.42768722  7.34083940  2.60357425
   2.97985060 21.96012061  4.33818382
   6.48207764 15.86363502  3.48922090
   2.96677186  1.59651235  4.77962244
   6.46498999  7.69279944  5.64547003
  15.02028753  0.45873237  3.72233646
  16.80612658  2.73376790  5.85449948
  16.77598068 20.81950803  3.29495757
  11.53586310 17.00134517  4.55246622
  11.55720178  6.56129942  4.58872965
   3.88022391 23.44805191  8.44582755
  13.31352823 14.71733725  2.41615568
  13.32939703  8.82904548  6.71191619
   5.58625159 15.08340171  5.46340090
   2.10190353 21.17553862  6.31814649
   2.08997630  2.38610643  2.80138981
   7.33547067  6.19828160  1.54395673
  15.01118744 23.09486938  5.42218872
   3.85916564  0.10365499  0.66948063
   5.56917934  8.47760540  3.67344530
   7.36639746 17.35752386  7.59243648
 


--------------------------------------------------------------------------------------------------------


 k-point  1 :   0.0000 0.0000 0.0000  plane waves:  110579
 k-point  2 :   0.5000-0.0000-0.0000  plane waves:  110528
 k-point  3 :  -0.0000 0.0000 0.2500  plane waves:  110506
 k-point  4 :   0.5000 0.0000 0.2500  plane waves:  110483
 k-point  5 :  -0.0000 0.0000 0.5000  plane waves:  110554
 k-point  6 :   0.5000 0.0000 0.5000  plane waves:  110612

 maximum and minimum number of plane-waves per node :     27717    27522

 maximum number of plane-waves:    110612
 maximum index in each direction: 
   IXMAX=   37   IYMAX=   58   IZMAX=   12
   IXMIN=  -38   IYMIN=  -58   IZMIN=  -12


 real space projection operators:
  total allocation   :      13273.38 KBytes
  max/ min on nodes  :       3328.23       3312.76


 parallel 3D FFT for wavefunctions:
    minimum data exchange during FFTs selected (reduces bandwidth)
 parallel 3D FFT for charge:
    minimum data exchange during FFTs selected (reduces bandwidth)


 total amount of memory used by VASP MPI-rank0   134673. kBytes
=======================================================================

   base      :      30000. kBytes
   nonlr-proj:       6761. kBytes
   fftplans  :       8618. kBytes
   grid      :      23569. kBytes
   one-center:       1213. kBytes
   wavefun   :      64512. kBytes
 
     INWAV:  cpu time    0.0002: real time    0.0006
 Broyden mixing: mesh for mixing (old mesh)
   NGX = 75   NGY =117   NGZ = 25
  (NGX  =240   NGY  =360   NGZ  = 80)
  gives a total of 219375 points

 initial charge density was supplied:
 charge density of overlapping atoms calculated
 number of electron     604.0000000 magnetization       0.0000000
 keeping initial charge density in first step


--------------------------------------------------------------------------------------------------------


 Maximum index for non-local projection operator          590
 Maximum index for augmentation-charges          557 (set IRDMAX)


--------------------------------------------------------------------------------------------------------


 First call to EWALD:  gamma=   0.119
 Maximum number of real-space cells 2x 2x 6
 Maximum number of reciprocal cells 3x 5x 1

    FEWALD:  cpu time    0.0149: real time    0.0153


--------------------------------------- Iteration      1(   1)  ---------------------------------------


    POTLOK:  cpu time    0.3681: real time    0.4707
    SETDIJ:  cpu time    0.0668: real time    0.0675
     EDDAV:  cpu time   29.1137: real time   29.3024
       DOS:  cpu time    0.0069: real time    0.0074
    --------------------------------------------
      LOOP:  cpu time   29.5556: real time   29.8481

 eigenvalue-minimisations  :  9216
 total energy-change (2. order) : 0.5333281E+04  (-0.2800073E+05)
 number of electron     604.0000000 magnetization       0.0000000
 augmentation part      604.0000000 magnetization       0.0000000

 Free energy of the ion-electron system (eV)
  ---------------------------------------------------
  alpha Z        PSCENC =       510.00616432
  Ewald energy   TEWEN  =     32905.74609553
  -Hartree energ DENC   =    -57142.53756231
  -exchange      EXHF   =         0.00000000
  -V(xc)+E(xc)   XCENC  =      2116.98462368
  PAW double counting   =     22087.95224925   -22402.63741193
  entropy T*S    EENTRO =        -0.04069744
  eigenvalues    EBANDS =     -1434.00331795
  atomic energy  EATOM  =     28691.81066055
  Solvation  Ediel_sol  =         0.00000000
  ---------------------------------------------------
  free energy    TOTEN  =      5333.28080370 eV

  energy without entropy =     5333.32150114  energy(sigma->0) =     5333.30115242


--------------------------------------------------------------------------------------------------------




--------------------------------------- Iteration      1(   2)  ---------------------------------------


     EDDAV:  cpu time   39.5652: real time   39.6468
       DOS:  cpu time    0.0036: real time    0.0036
    --------------------------------------------
      LOOP:  cpu time   39.5690: real time   39.6506

 eigenvalue-minimisations  : 12960
 total energy-change (2. order) :-0.5714468E+04  (-0.5495933E+04)
 number of electron     604.0000000 magnetization       0.0000000
 augmentation part      604.0000000 magnetization       0.0000000

 Free energy of the ion-electron system (eV)
  ---------------------------------------------------
  alpha Z        PSCENC =       510.00616432
  Ewald energy   TEWEN  =     32905.74609553
  -Hartree energ DENC   =    -57142.53756231
  -exchange      EXHF   =         0.00000000
  -V(xc)+E(xc)   XCENC  =      2116.98462368
  PAW double counting   =     22087.95224925   -22402.63741193
  entropy T*S    EENTRO =        -0.00000000
  eigenvalues    EBANDS =     -7148.51165541
  atomic energy  EATOM  =     28691.81066055
  Solvation  Ediel_sol  =         0.00000000
  ---------------------------------------------------
  free energy    TOTEN  =      -381.18683632 eV

  energy without entropy =     -381.18683632  energy(sigma->0) =     -381.18683632


--------------------------------------------------------------------------------------------------------




--------------------------------------- Iteration      1(   3)  ---------------------------------------


     EDDAV:  cpu time   33.5463: real time   33.6088
       DOS:  cpu time    0.0048: real time    0.0048
    --------------------------------------------
      LOOP:  cpu time   33.5508: real time   33.6134

 eigenvalue-minimisations  : 10880
 total energy-change (2. order) :-0.8833160E+03  (-0.8763259E+03)
 number of electron     604.0000000 magnetization       0.0000000
 augmentation part      604.0000000 magnetization       0.0000000

 Free energy of the ion-electron system (eV)
  ---------------------------------------------------
  alpha Z        PSCENC =       510.00616432
  Ewald energy   TEWEN  =     32905.74609553
  -Hartree energ DENC   =    -57142.53756231
  -exchange      EXHF   =         0.00000000
  -V(xc)+E(xc)   XCENC  =      2116.98462368
  PAW double counting   =     22087.95224925   -22402.63741193
  entropy T*S    EENTRO =        -0.07220424
  eigenvalues    EBANDS =     -8031.75544634
  atomic energy  EATOM  =     28691.81066055
  Solvation  Ediel_sol  =         0.00000000
  ---------------------------------------------------
  free energy    TOTEN  =     -1264.50283149 eV

  energy without entropy =    -1264.43062725  energy(sigma->0) =    -1264.46672937


--------------------------------------------------------------------------------------------------------




--------------------------------------- Iteration      1(   4)  ---------------------------------------


     EDDAV:  cpu time   37.6409: real time   37.7311
       DOS:  cpu time    0.0047: real time    0.0047
    --------------------------------------------
      LOOP:  cpu time   37.6456: real time   37.7358

 eigenvalue-minimisations  : 12320
 total energy-change (2. order) :-0.3061915E+02  (-0.3041196E+02)
 number of electron     604.0000000 magnetization       0.0000000
 augmentation part      604.0000000 magnetization       0.0000000

 Free energy of the ion-electron system (eV)
  ---------------------------------------------------
  alpha Z        PSCENC =       510.00616432
  Ewald energy   TEWEN  =     32905.74609553
  -Hartree energ DENC   =    -57142.53756231
  -exchange      EXHF   =         0.00000000
  -V(xc)+E(xc)   XCENC  =      2116.98462368
  PAW double counting   =     22087.95224925   -22402.63741193
  entropy T*S    EENTRO =        -0.08088148
  eigenvalues    EBANDS =     -8062.36591863
  atomic energy  EATOM  =     28691.81066055
  Solvation  Ediel_sol  =         0.00000000
  ---------------------------------------------------
  free energy    TOTEN  =     -1295.12198102 eV

  energy without entropy =    -1295.04109955  energy(sigma->0) =    -1295.08154028


--------------------------------------------------------------------------------------------------------




--------------------------------------- Iteration      1(   5)  ---------------------------------------


     EDDAV:  cpu time   39.8692: real time   39.9239
       DOS:  cpu time    0.0050: real time    0.0050
    CHARGE:  cpu time    1.4060: real time    1.4155
    MIXING:  cpu time    0.0124: real time    0.0154
    --------------------------------------------
      LOOP:  cpu time   41.2927: real time   41.3599

 eigenvalue-minimisations  : 13280
 total energy-change (2. order) :-0.9202318E+00  (-0.9184388E+00)
 number of electron     603.9999999 magnetization       0.0002092
 augmentation part       37.2737173 magnetization      -0.0002882

 Broyden mixing:
  rms(total) = 0.84997E+01    rms(broyden)= 0.84992E+01
  rms(prec ) = 0.91302E+01
  weight for this iteration     100.00

 Free energy of the ion-electron system (eV)
  ---------------------------------------------------
  alpha Z        PSCENC =       510.00616432
  Ewald energy   TEWEN  =     32905.74609553
  -Hartree energ DENC   =    -57142.53756231
  -exchange      EXHF   =         0.00000000
  -V(xc)+E(xc)   XCENC  =      2116.98462368
  PAW double counting   =     22087.95224925   -22402.63741193
  entropy T*S    EENTRO =        -0.08079700
  eigenvalues    EBANDS =     -8063.28623495
  atomic energy  EATOM  =     28691.81066055
  Solvation  Ediel_sol  =         0.00000000
  ---------------------------------------------------
  free energy    TOTEN  =     -1296.04221286 eV

  energy without entropy =    -1295.96141586  energy(sigma->0) =    -1296.00181436


--------------------------------------------------------------------------------------------------------




--------------------------------------- Iteration      1(   6)  ---------------------------------------


    POTLOK:  cpu time    0.2864: real time    0.2868
    SETDIJ:  cpu time    0.0718: real time    0.0718
     EDDAV:  cpu time   43.8614: real time   43.9241
       DOS:  cpu time    0.0124: real time    0.0125
    CHARGE:  cpu time    1.4129: real time    1.4219
    MIXING:  cpu time    0.0112: real time    0.0222
    --------------------------------------------
      LOOP:  cpu time   45.6562: real time   45.7393

 eigenvalue-minimisations  : 14528
 total energy-change (2. order) :-0.1960030E+03  (-0.2358576E+03)
 number of electron     603.9999971 magnetization       0.0003180
 augmentation part       56.5571984 magnetization      -0.0071869

 Broyden mixing:
  rms(total) = 0.21695E+02    rms(broyden)= 0.21695E+02
  rms(prec ) = 0.21975E+02
  weight for this iteration     100.00

 eigenvalues of (default mixing * dielectric matrix)
  average eigenvalue GAMMA=   0.0968
  0.0968

 Free energy of the ion-electron system (eV)
  ---------------------------------------------------
  alpha Z        PSCENC =       510.00616432
  Ewald energy   TEWEN  =     32905.74609553
  -Hartree energ DENC   =    -57484.33718845
  -exchange      EXHF   =         0.00000000
  -V(xc)+E(xc)   XCENC  =      2154.27102356
  PAW double counting   =     32868.50957055   -33096.50141504
  entropy T*S    EENTRO =        -0.11104679
  eigenvalues    EBANDS =     -8041.43911770
  atomic energy  EATOM  =     28691.81066055
  Solvation  Ediel_sol  =         0.00000000
  ---------------------------------------------------
  free energy    TOTEN  =     -1492.04525349 eV

  energy without entropy =    -1491.93420670  energy(sigma->0) =    -1491.98973010


--------------------------------------------------------------------------------------------------------




--------------------------------------- Iteration      1(   7)  ---------------------------------------


    POTLOK:  cpu time    0.2930: real time    0.2943
    SETDIJ:  cpu time    0.0645: real time    0.0645
     EDDAV:  cpu time   33.2127: real time   33.2526
       DOS:  cpu time    0.0062: real time    0.0062
    CHARGE:  cpu time    1.3964: real time    1.4047
    MIXING:  cpu time    0.0080: real time    0.0124
    --------------------------------------------
      LOOP:  cpu time   34.9808: real time   35.0346

 eigenvalue-minimisations  : 10848
 total energy-change (2. order) : 0.8929576E+02  (-0.1978495E+02)
 number of electron     603.9999972 magnetization       0.0001272
 augmentation part       54.9631094 magnetization      -0.0026443

 Broyden mixing:
  rms(total) = 0.14005E+02    rms(broyden)= 0.14005E+02
  rms(prec ) = 0.14387E+02
  weight for this iteration     100.00

 eigenvalues of (default mixing * dielectric matrix)
  average eigenvalue GAMMA=   0.4523
  0.4523  0.4523

 Free energy of the ion-electron system (eV)
  ---------------------------------------------------
  alpha Z        PSCENC =       510.00616432
  Ewald energy   TEWEN  =     32905.74609553
  -Hartree energ DENC   =    -57624.03427976
  -exchange      EXHF   =         0.00000000
  -V(xc)+E(xc)   XCENC  =      2156.24859389
  PAW double counting   =     34327.76116512   -34583.84769242
  entropy T*S    EENTRO =        -0.12699016
  eigenvalues    EBANDS =     -7786.31321448
  atomic energy  EATOM  =     28691.81066055
  Solvation  Ediel_sol  =         0.00000000
  ---------------------------------------------------
  free energy    TOTEN  =     -1402.74949742 eV

  energy without entropy =    -1402.62250726  energy(sigma->0) =    -1402.68600234


--------------------------------------------------------------------------------------------------------




--------------------------------------- Iteration      1(   8)  ---------------------------------------


    POTLOK:  cpu time    0.2733: real time    0.2738
    SETDIJ:  cpu time    0.0646: real time    0.0646
     EDDAV:  cpu time   39.3874: real time   39.4386
       DOS:  cpu time    0.0049: real time    0.0049
    CHARGE:  cpu time    1.3948: real time    1.4039
    MIXING:  cpu time    0.0079: real time    0.0101
    --------------------------------------------
      LOOP:  cpu time   41.1331: real time   41.1961

 eigenvalue-minimisations  : 13056
 total energy-change (2. order) : 0.2443136E+03  (-0.2327018E+02)
 number of electron     603.9999972 magnetization       0.0054292
 augmentation part       45.8473437 magnetization      -0.0163900

 Broyden mixing:
  rms(total) = 0.30101E+01    rms(broyden)= 0.30099E+01
  rms(prec ) = 0.30617E+01
  weight for this iteration     100.00

[...]
     12.49811     13.93970      4.57421         0.001307      0.003915     -0.000002
     10.20332      8.46284      1.04131        -0.001002     -0.000244      0.000106
     18.14218     29.35087      6.78957         0.000552      0.000736      0.003168
     12.49726      9.60788      4.55669         0.002736     -0.000576      0.001720
      8.70552     14.73274      5.04441        -0.000425     -0.000632      0.001646
      0.75839     23.08382      2.77314        -0.001083      0.000004     -0.001002
     15.83645     23.86835      3.26933        -0.002852      0.000726      0.002148
     17.41041     27.29755      4.39396         0.001243      0.002603      0.003838
     18.15193     27.67004      5.48177         0.001204     -0.003973     -0.000362
     17.41182     25.48480      8.23304         0.001289      0.001441     -0.000331
     10.92478     13.03058      5.68743        -0.000378      0.001361      0.003691
     10.18420     10.14109      2.35244        -0.001019      0.001378      0.002938
      0.73773     24.76146      4.08499         0.000065      0.002175      0.002996
     10.18131     13.40450      6.77345         0.000472     -0.001326      0.001662
     10.92415     10.51505      3.44087        -0.001270     -0.000454      0.001882
      8.71289     13.05262      3.73556        -0.001354     -0.002384     -0.001765
      1.47546     25.13435      5.17526         0.000362     -0.000448      0.002218
      0.73461     28.02763      8.50641        -0.001858     -0.005014     -0.000051
      8.70852     10.49337      5.39519         0.000785      0.004559      0.002581
     18.15017     25.11200      7.14310         0.001563      0.005013      0.001966
      1.47487     27.65672      7.41713        -0.000485      0.003187      0.005315
      7.96936     10.86677      6.48450         0.001590      0.000490      0.000848
      7.96975     12.68131      2.64837         0.003077     -0.002807      0.000407
     15.92069      1.24020      1.75089        -0.000394      0.000540     -0.001334
     15.90807     22.31084      7.39404        -0.001005     -0.000410      0.000864
     12.41783     16.21051      6.52795         0.000225      0.002206     -0.002963
     12.42769      7.34084      2.60357         0.002284      0.002069     -0.001280
      2.97985     21.96012      4.33818        -0.000256     -0.002903      0.001822
      6.48208     15.86364      3.48922         0.000578     -0.003445     -0.000563
      2.96677      1.59651      4.77962         0.000123     -0.000267     -0.002417
      6.46499      7.69280      5.64547        -0.000117      0.000669     -0.001358
     15.02029      0.45873      3.72234         0.000755     -0.001375      0.000520
     16.80613      2.73377      5.85450        -0.001268     -0.002577     -0.000967
     16.77598     20.81951      3.29496        -0.006452     -0.003960     -0.005402
     11.53586     17.00135      4.55247         0.001396     -0.003792     -0.002151
     11.55720      6.56130      4.58873         0.005599     -0.003869     -0.007290
      3.88022     23.44805      8.44583        -0.001837     -0.006445      0.003803
     13.31353     14.71734      2.41616         0.000719      0.001063     -0.000037
     13.32940      8.82905      6.71192        -0.000994     -0.001564      0.000776
      5.58625     15.08340      5.46340        -0.000515      0.002798     -0.001072
      2.10190     21.17554      6.31815         0.005975     -0.000434     -0.003710
      2.08998      2.38611      2.80139         0.003574      0.000119      0.002766
      7.33547      6.19828      1.54396        -0.005486     -0.002229     -0.001961
     15.01119     23.09487      5.42219         0.000515      0.002331      0.000343
      3.85917      0.10365      0.66948         0.000877     -0.004499      0.003513
      5.56918      8.47761      3.67345         0.001814      0.003950     -0.000531
      7.36640     17.35752      7.59244        -0.002356     -0.002133     -0.002630
 -----------------------------------------------------------------------------------
    total drift:                                0.003733      0.058792     -0.020598


--------------------------------------------------------------------------------------------------------



  FREE ENERGIE OF THE ION-ELECTRON SYSTEM (eV)
  ---------------------------------------------------
  free  energy   TOTEN  =     -1179.19731746 eV

  energy  without entropy=    -1179.18942623  energy(sigma->0) =    -1179.19337185
 


--------------------------------------------------------------------------------------------------------


    POTLOK:  cpu time    0.3757: real time    0.3757


--------------------------------------------------------------------------------------------------------




--------------------------------------------------------------------------------------------------------


  
 reached required accuracy - stopping structural energy minimisation
 writing wavefunctions
     LOOP+:  cpu time 1957.2135: real time 2076.7177
    4ORBIT:  cpu time    0.0000: real time    0.0000
 


 total charge     
 
# of ion       s       p       d       tot
------------------------------------------
    1        0.867   1.770   0.000   2.637
    2        0.869   1.777   0.000   2.645
    3        0.867   1.770   0.000   2.638
    4        0.867   1.770   0.000   2.637
    5        0.868   1.776   0.000   2.645
    6        0.868   1.776   0.000   2.645
    7        0.869   1.777   0.000   2.645
    8        0.867   1.770   0.000   2.638
    9        0.868   1.776   0.000   2.645
   10        0.867   1.770   0.000   2.638
   11        0.869   1.776   0.000   2.645
   12        0.868   1.776   0.000   2.645
   13        0.868   1.776   0.000   2.645
   14        0.867   1.770   0.000   2.637
   15        0.867   1.770   0.000   2.638
   16        0.867   1.770   0.000   2.637
   17        0.864   1.718   0.000   2.581
   18        0.864   1.719   0.000   2.583
   19        0.864   1.718   0.000   2.583
   20        0.864   1.719   0.000   2.583
   21        0.864   1.719   0.000   2.583
   22        0.864   1.718   0.000   2.581
   23        0.864   1.717   0.000   2.581
   24        0.864   1.718   0.000   2.582
   25        0.864   1.717   0.000   2.581
   26        0.864   1.719   0.000   2.583
   27        0.864   1.719   0.000   2.583
   28        0.864   1.719   0.000   2.583
   29        0.864   1.718   0.000   2.582
   30        0.864   1.718   0.000   2.581
   31        0.864   1.718   0.000   2.582
   32        0.864   1.719   0.000   2.583
   33        0.867   1.784   0.000   2.651
   34        0.866   1.784   0.000   2.651
   35        0.866   1.784   0.000   2.651
   36        0.866   1.784   0.000   2.651
   37        0.866   1.784   0.000   2.651
   38        0.867   1.784   0.000   2.651
   39        0.867   1.784   0.000   2.651
   40        0.867   1.784   0.000   2.651
   41        0.867   1.784   0.000   2.650
   42        0.866   1.784   0.000   2.651
   43        0.866   1.784   0.000   2.651
   44        0.866   1.784   0.000   2.651
   45        0.867   1.784   0.000   2.651
   46        0.867   1.784   0.000   2.651
   47        0.867   1.784   0.000   2.651
   48        0.866   1.784   0.000   2.651
   49        0.870   1.767   0.000   2.637
   50        0.871   1.767   0.000   2.637
   51        0.871   1.767   0.000   2.637
   52        0.871   1.767   0.000   2.638
   53        0.871   1.767   0.000   2.637
   54        0.870   1.767   0.000   2.638
   55        0.870   1.767   0.000   2.637
   56        0.870   1.767   0.000   2.638
   57        0.870   1.767   0.000   2.637
   58        0.871   1.767   0.000   2.637
   59        0.871   1.767   0.000   2.638
   60        0.871   1.767   0.000   2.637
   61        0.870   1.767   0.000   2.638
   62        0.870   1.767   0.000   2.637
   63        0.870   1.767   0.000   2.638
   64        0.871   1.767   0.000   2.637
   65        0.847   1.795   0.000   2.641
   66        0.847   1.795   0.000   2.642
   67        0.847   1.795   0.000   2.641
   68        0.847   1.795   0.000   2.642
   69        0.847   1.795   0.000   2.642
   70        0.847   1.794   0.000   2.641
   71        0.847   1.794   0.000   2.641
   72        0.847   1.795   0.000   2.642
   73        0.866   1.793   0.000   2.658
   74        0.866   1.793   0.000   2.659
   75        0.866   1.793   0.000   2.659
   76        0.866   1.793   0.000   2.658
   77        0.866   1.793   0.000   2.658
   78        0.866   1.793   0.000   2.658
   79        0.866   1.793   0.000   2.658
   80        0.866   1.793   0.000   2.658
   81        0.411   0.526   7.158   8.094
   82        0.411   0.526   7.158   8.094
   83        0.411   0.526   7.158   8.095
   84        0.411   0.525   7.158   8.094
   85        0.638   0.048   0.000   0.686
   86        0.638   0.048   0.000   0.686
   87        0.638   0.048   0.000   0.686
   88        0.638   0.048   0.000   0.686
   89        0.638   0.048   0.000   0.686
   90        0.638   0.048   0.000   0.686
   91        0.638   0.048   0.000   0.686
   92        0.638   0.048   0.000   0.686
   93        0.638   0.048   0.000   0.686
   94        0.638   0.048   0.000   0.686
   95        0.638   0.048   0.000   0.686
   96        0.638   0.048   0.000   0.686
   97        0.638   0.048   0.000   0.686
   98        0.638   0.048   0.000   0.686
   99        0.638   0.048   0.000   0.686
  100        0.638   0.048   0.000   0.686
  101        0.635   0.049   0.000   0.684
  102        0.635   0.049   0.000   0.684
  103        0.631   0.050   0.000   0.680
  104        0.631   0.050   0.000   0.680
  105        0.635   0.049   0.000   0.684
  106        0.631   0.050   0.000   0.680
  107        0.631   0.050   0.000   0.680
  108        0.635   0.049   0.000   0.684
  109        0.631   0.050   0.000   0.680
  110        0.631   0.050   0.000   0.680
  111        0.635   0.049   0.000   0.684
  112        0.635   0.049   0.000   0.684
  113        0.631   0.050   0.000   0.680
  114        0.635   0.049   0.000   0.684
  115        0.635   0.049   0.000   0.684
  116        0.631   0.050   0.000   0.680
  117        1.237   2.610   0.000   3.848
  118        1.238   2.614   0.000   3.852
  119        1.237   2.611   0.000   3.848
  120        1.237   2.610   0.000   3.848
  121        1.237   2.614   0.000   3.851
  122        1.237   2.614   0.000   3.851
  123        1.238   2.614   0.000   3.852
  124        1.237   2.611   0.000   3.848
  125        1.237   2.614   0.000   3.852
  126        1.237   2.610   0.000   3.848
  127        1.238   2.614   0.000   3.852
  128        1.237   2.614   0.000   3.851
  129        1.237   2.614   0.000   3.852
  130        1.237   2.610   0.000   3.848
  131        1.237   2.610   0.000   3.848
  132        1.237   2.610   0.000   3.847
  133        1.211   2.728   0.000   3.940
  134        1.211   2.728   0.000   3.940
  135        1.211   2.728   0.000   3.940
  136        1.211   2.729   0.000   3.940
  137        1.211   2.728   0.000   3.940
  138        1.211   2.728   0.000   3.939
  139        1.211   2.728   0.000   3.939
  140        1.211   2.728   0.000   3.940
  141        1.585   3.539   0.000   5.124
  142        1.586   3.535   0.000   5.120
  143        1.586   3.535   0.000   5.120
  144        1.586   3.535   0.000   5.120
  145        1.586   3.535   0.000   5.120
  146        1.585   3.539   0.000   5.123
  147        1.585   3.539   0.000   5.124
  148        1.585   3.539   0.000   5.124
  149        1.585   3.539   0.000   5.124
  150        1.586   3.535   0.000   5.120
  151        1.586   3.535   0.000   5.120
  152        1.586   3.535   0.000   5.120
  153        1.585   3.539   0.000   5.124
  154        1.585   3.539   0.000   5.124
  155        1.585   3.539   0.000   5.124
  156        1.586   3.535   0.000   5.120
--------------------------------------------------
tot        146.033 265.251  28.632 439.916
 


 magnetization (x)
 
# of ion       s       p       d       tot
------------------------------------------
    1        0.003   0.013   0.000   0.016
    2        0.003   0.014   0.000   0.017
    3        0.003   0.013   0.000   0.016
    4       -0.003  -0.013   0.000  -0.016
    5       -0.003  -0.014   0.000  -0.017
    6        0.003   0.014   0.000   0.017
    7       -0.003  -0.014   0.000  -0.017
    8       -0.003  -0.013   0.000  -0.016
    9       -0.003  -0.014   0.000  -0.017
   10        0.003   0.013   0.000   0.016
   11        0.003   0.014   0.000   0.017
   12       -0.003  -0.014   0.000  -0.017
   13        0.003   0.014   0.000   0.017
   14        0.003   0.013   0.000   0.016
   15       -0.003  -0.013   0.000  -0.016
   16       -0.003  -0.013   0.000  -0.016
   17        0.000   0.001   0.000   0.001
   18        0.000   0.001   0.000   0.001
   19        0.000   0.001   0.000   0.001
   20       -0.000  -0.001   0.000  -0.001
   21       -0.000  -0.001   0.000  -0.001
   22        0.000   0.001   0.000   0.001
   23       -0.000  -0.001   0.000  -0.001
   24       -0.000  -0.001   0.000  -0.001
   25       -0.000  -0.001   0.000  -0.001
   26        0.000   0.001   0.000   0.001
   27        0.000   0.001   0.000   0.001
   28       -0.000  -0.001   0.000  -0.001
   29        0.000   0.001   0.000   0.001
   30        0.000   0.001   0.000   0.001
   31       -0.000  -0.001   0.000  -0.001
   32       -0.000  -0.001   0.000  -0.001
   33        0.000  -0.000   0.000  -0.000
   34        0.000  -0.000   0.000  -0.000
   35        0.000  -0.000   0.000  -0.000
   36       -0.000   0.000   0.000   0.000
   37       -0.000   0.000   0.000   0.000
   38        0.000  -0.000   0.000  -0.000
   39       -0.000   0.000   0.000   0.000
   40       -0.000   0.000   0.000   0.000
   41       -0.000   0.000   0.000   0.000
   42        0.000  -0.000   0.000  -0.000
   43        0.000  -0.000   0.000  -0.000
   44       -0.000   0.000   0.000   0.000
   45        0.000  -0.000   0.000  -0.000
   46        0.000  -0.000   0.000  -0.000
   47       -0.000   0.000   0.000   0.000
   48       -0.000   0.000   0.000   0.000
   49        0.000   0.000   0.000   0.000
   50        0.000   0.000   0.000   0.000
   51        0.000   0.000   0.000   0.000
   52       -0.000  -0.000   0.000  -0.000
   53       -0.000  -0.000   0.000  -0.000
   54        0.000   0.000   0.000   0.000
   55       -0.000  -0.000   0.000  -0.000
   56       -0.000  -0.000   0.000  -0.000
   57       -0.000  -0.000   0.000  -0.000
   58        0.000   0.000   0.000   0.000
   59        0.000   0.000   0.000   0.000
   60       -0.000  -0.000   0.000  -0.000
   61        0.000   0.000   0.000   0.000
   62        0.000   0.000   0.000   0.000
   63       -0.000  -0.000   0.000  -0.000
   64       -0.000  -0.000   0.000  -0.000
   65        0.002   0.009   0.000   0.011
   66        0.002   0.009   0.000   0.011
   67       -0.002  -0.009   0.000  -0.011
   68       -0.002  -0.009   0.000  -0.011
   69        0.002   0.009   0.000   0.011
   70       -0.002  -0.009   0.000  -0.011
   71        0.002   0.009   0.000   0.011
   72       -0.002  -0.009   0.000  -0.011
   73        0.000   0.000   0.000   0.000
   74        0.000   0.000   0.000   0.000
   75       -0.000  -0.000   0.000  -0.000
   76       -0.000  -0.000   0.000  -0.000
   77        0.000   0.000   0.000   0.000
   78       -0.000  -0.000   0.000  -0.000
   79        0.000   0.000   0.000   0.000
   80       -0.000  -0.000   0.000  -0.000
   81        0.011   0.083   2.344   2.439
   82        0.011   0.083   2.344   2.439
   83       -0.011  -0.083  -2.344  -2.439
   84       -0.011  -0.083  -2.345  -2.439
   85        0.000  -0.000   0.000   0.000
   86        0.000  -0.000   0.000   0.000
   87        0.000  -0.000   0.000   0.000
   88       -0.000   0.000   0.000  -0.000
   89       -0.000   0.000   0.000  -0.000
   90        0.000  -0.000   0.000   0.000
   91       -0.000   0.000   0.000  -0.000
   92       -0.000   0.000   0.000  -0.000
   93       -0.000   0.000   0.000  -0.000
   94        0.000  -0.000   0.000   0.000
   95        0.000  -0.000   0.000   0.000
   96       -0.000   0.000   0.000  -0.000
   97        0.000  -0.000   0.000   0.000
   98        0.000  -0.000   0.000   0.000
   99       -0.000   0.000   0.000  -0.000
  100       -0.000   0.000   0.000  -0.000
  101       -0.000  -0.000   0.000  -0.001
  102       -0.000  -0.000   0.000  -0.001
  103       -0.001  -0.000   0.000  -0.001
  104        0.001   0.000   0.000   0.001
  105        0.000   0.000   0.000   0.001
  106       -0.001  -0.000   0.000  -0.001
  107        0.001   0.000   0.000   0.001
  108        0.000   0.000   0.000   0.001
  109        0.001   0.000   0.000   0.001
  110       -0.001  -0.000   0.000  -0.001
  111       -0.000  -0.000   0.000  -0.001
  112        0.000   0.000   0.000   0.001
  113       -0.001  -0.000   0.000  -0.001
  114       -0.000  -0.000   0.000  -0.001
  115        0.000   0.000   0.000   0.001
  116        0.001   0.000   0.000   0.001
  117        0.013   0.044   0.000   0.057
  118        0.016   0.050   0.000   0.067
  119        0.013   0.045   0.000   0.058
  120       -0.013  -0.044   0.000  -0.057
  121       -0.016  -0.050   0.000  -0.066
  122        0.016   0.050   0.000   0.066
  123       -0.016  -0.051   0.000  -0.067
  124       -0.013  -0.045   0.000  -0.057
  125       -0.016  -0.050   0.000  -0.067
  126        0.013   0.045   0.000   0.057
  127        0.016   0.051   0.000   0.067
  128       -0.016  -0.050   0.000  -0.066
  129        0.016   0.050   0.000   0.066
  130        0.013   0.044   0.000   0.057
  131       -0.013  -0.044   0.000  -0.057
  132       -0.013  -0.044   0.000  -0.057
  133        0.000   0.001   0.000   0.001
  134        0.000   0.001   0.000   0.001
  135       -0.000  -0.001   0.000  -0.001
  136       -0.000  -0.001   0.000  -0.001
  137        0.000   0.001   0.000   0.001
  138       -0.000  -0.001   0.000  -0.001
  139        0.000   0.001   0.000   0.001
  140       -0.000  -0.001   0.000  -0.001
  141        0.000   0.001   0.000   0.001
  142        0.000   0.001   0.000   0.001
  143        0.000   0.001   0.000   0.001
  144       -0.000  -0.001   0.000  -0.001
  145       -0.000  -0.001   0.000  -0.001
  146        0.000   0.001   0.000   0.001
  147       -0.000  -0.001   0.000  -0.001
  148       -0.000  -0.001   0.000  -0.001
  149       -0.000  -0.001   0.000  -0.001
  150        0.000   0.001   0.000   0.001
  151        0.000   0.001   0.000   0.001
  152       -0.000  -0.001   0.000  -0.001
  153        0.000   0.001   0.000   0.001
  154        0.000   0.001   0.000   0.001
  155       -0.000  -0.001   0.000  -0.001
  156       -0.000  -0.001   0.000  -0.001
--------------------------------------------------
tot          0.000   0.000  -0.000   0.000
 

 total amount of memory used by VASP MPI-rank0   134673. kBytes
=======================================================================

   base      :      30000. kBytes
   nonlr-proj:       6761. kBytes
   fftplans  :       8618. kBytes
   grid      :      23569. kBytes
   one-center:       1213. kBytes
   wavefun   :      64512. kBytes
 
  
  
 General timing and accounting informations for this job:
 ========================================================
  
                  Total CPU time used (sec):     2227.798
                            User time (sec):     2081.520
                          System time (sec):      146.278
                         Elapsed time (sec):     2363.153
  
                   Maximum memory used (kb):      961908.
                   Average memory used (kb):           0.
  
                          Minor page faults:       107623
                          Major page faults:            6
                 Voluntary context switches:        41656
