       N       E                     dE             d eps       ncg     rms          rms(c)
RMM:   1     0.685355447957E+04    0.68536E+04   -0.25290E+05  2400   0.134E+03
RMM:   2     0.245832783504E+04   -0.43952E+04   -0.67144E+04  2400   0.301E+02
RMM:   3     0.340604996100E+03   -0.21177E+04   -0.26002E+04  2400   0.180E+02
RMM:   4    -0.691120197850E+03   -0.10317E+04   -0.99963E+03  2400   0.139E+02
RMM:   5    -0.105308766534E+04   -0.36197E+03   -0.32411E+03  2400   0.817E+01
RMM:   6    -0.117316504078E+04   -0.12008E+03   -0.10556E+03  2400   0.497E+01
RMM:   7    -0.121379599182E+04   -0.40631E+02   -0.37113E+02  2400   0.289E+01
RMM:   8    -0.122870956277E+04   -0.14914E+02   -0.13392E+02  2400   0.186E+01
RMM:   9    -0.123834219904E+04   -0.96326E+01   -0.91435E+01  6220   0.112E+01
RMM:  10    -0.123872005326E+04   -0.37785E+00   -0.41106E+00  6165   0.266E+00
RMM:  11    -0.123875464337E+04   -0.34590E-01   -0.32624E-01  6205   0.636E-01
RMM:  12    -0.123875548894E+04   -0.84558E-03   -0.11249E-02  6141   0.135E-01    0.576E+01
RMM:  13    -0.116711757978E+04    0.71638E+02   -0.15733E+02  4800   0.163E+01    0.320E+01
RMM:  14    -0.115247750300E+04    0.14640E+02   -0.42820E+01  4800   0.843E+00    0.149E+01
RMM:  15    -0.115110369121E+04    0.13738E+01   -0.10505E+01  4800   0.448E+00    0.503E+00
RMM:  16    -0.115097118183E+04    0.13251E+00   -0.78222E-01  4905   0.143E+00    0.140E+00
RMM:  17    -0.115097849370E+04   -0.73119E-02   -0.16542E-01  4833   0.672E-01    0.465E-01
RMM:  18    -0.115097945834E+04   -0.96464E-03   -0.37065E-02  4815   0.268E-01    0.239E-01
RMM:  19    -0.115098150383E+04   -0.20455E-02   -0.93787E-03  4923   0.135E-01    0.124E-01
RMM:  20    -0.115098352307E+04   -0.20192E-02   -0.51290E-03  4822   0.961E-02    0.860E-02
RMM:  21    -0.115098467596E+04   -0.11529E-02   -0.27856E-03  4804   0.639E-02    0.469E-02
RMM:  22    -0.115098582719E+04   -0.11512E-02   -0.77665E-04  4800   0.374E-02    0.207E-02
RMM:  23    -0.115098615692E+04   -0.32973E-03   -0.19401E-04  4853   0.165E-02    0.120E-02
RMM:  24    -0.115098636044E+04   -0.20352E-03   -0.51660E-05  4797   0.873E-03    0.584E-03
RMM:  25    -0.115098645771E+04   -0.97273E-04   -0.22361E-05  4609   0.522E-03    0.380E-03
RMM:  26    -0.115098648215E+04   -0.24433E-04   -0.82809E-06  3887   0.294E-03    0.163E-03
RMM:  27    -0.115098648747E+04   -0.53280E-05   -0.23765E-06  3188   0.161E-03    0.847E-04
RMM:  28    -0.115098648818E+04   -0.70664E-06   -0.47428E-07  2942   0.967E-04
   1 F= -.11625297E+04 E0= -.11625297E+04  d E =-.116253E+04
