 vasp.6.0.8 29Jun18 (build Mar 14 2019 11:44:20) complex                        
  
 executed on             LinuxIFC date 2021.01.07  14:19:22
 running   64 mpi-ranks, with    1 threads/rank
 distrk:  each k-point on   64 cores,    1 groups
 distr:  one band on NCORES_PER_BAND=   4 cores,   16 groups


--------------------------------------------------------------------------------------------------------


 INCAR:
 POTCAR:    PAW_PBE C 08Apr2002                   
 POTCAR:    PAW_PBE Zn 06Sep2000                  
 POTCAR:    PAW_PBE H 15Jun2001                   
 POTCAR:    PAW_PBE N 08Apr2002                   
 POTCAR:    PAW_PBE O 08Apr2002                   
 POTCAR:    PAW_PBE C 08Apr2002                   
   VRHFIN =C: s2p2                                                              
   LEXCH  = PE                                                                  
   EATOM  =   147.1560 eV,   10.8157 Ry                                         
                                                                                
   TITEL  = PAW_PBE C 08Apr2002                                                 
   LULTRA =        F    use ultrasoft PP ?                                      
   IUNSCR =        1    unscreen: 0-lin 1-nonlin 2-no                           
   RPACOR =    1.200    partial core radius                                     
   POMASS =   12.011; ZVAL   =    4.000    mass and valenz                      
   RCORE  =    1.500    outmost cutoff radius                                   
   RWIGS  =    1.630; RWIGS  =    0.863    wigner-seitz radius (au A)           
   ENMAX  =  400.000; ENMIN  =  300.000 eV                                      
   ICORE  =        2    local potential                                         
   LCOR   =        T    correct aug charges                                     
   LPAW   =        T    paw PP                                                  
   EAUG   =  644.873                                                            
   DEXC   =    0.000                                                            
   RMAX   =    1.529    core radius for proj-oper                               
   RAUG   =    1.300    factor for augmentation sphere                          
   RDEP   =    1.501    radius for radial grids                                 
   RDEPT  =    1.300    core radius for aug-charge                              
                                                                                
   Atomic configuration                                                         
    4 entries                                                                   
     n  l   j            E        occ.                                          
     1  0  0.50      -273.3789   2.0000                                         
     2  0  0.50       -13.7508   2.0000                                         
     2  1  0.50        -5.2854   2.0000                                         
     3  2  1.50        -5.4423   0.0000                                         
   Description                                                                  
     l       E           TYP  RCUT    TYP  RCUT                                 
     0    -13.7508458     23  1.200                                             
     0     -8.2022199     23  1.200                                             
     1     -5.2854383     23  1.500                                             
     1     34.0145650     23  1.500                                             
     2     -5.4423304      7  1.500                                             
  local pseudopotential read in
  partial core-charges read in
  partial kinetic energy density read in
  atomic valenz-charges read in
  non local Contribution for L=           0  read in
    real space projection operators read in
  non local Contribution for L=           0  read in
    real space projection operators read in
  non local Contribution for L=           1  read in
    real space projection operators read in
  non local Contribution for L=           1  read in
    real space projection operators read in
    PAW grid and wavefunctions read in
 
   number of l-projection  operators is LMAX  =           4
   number of lm-projection operators is LMMAX =           8
 
 POTCAR:    PAW_PBE Zn 06Sep2000                  
   VRHFIN =Zn: d10 p2                                                           
   LEXCH  = PE                                                                  
   EATOM  =  1748.8345 eV,  128.5357 Ry                                         
                                                                                
   TITEL  = PAW_PBE Zn 06Sep2000                                                
   LULTRA =        F    use ultrasoft PP ?                                      
   IUNSCR =        1    unscreen: 0-lin 1-nonlin 2-no                           
   RPACOR =    2.000    partial core radius                                     
   POMASS =   65.390; ZVAL   =   12.000    mass and valenz                      
   RCORE  =    2.300    outmost cutoff radius                                   
   RWIGS  =    2.400; RWIGS  =    1.270    wigner-seitz radius (au A)           
   ENMAX  =  276.723; ENMIN  =  207.542 eV                                      
   RCLOC  =    1.828    cutoff for local pot                                    
   LCOR   =        T    correct aug charges                                     
   LPAW   =        T    paw PP                                                  
   EAUG   =  575.892                                                            
   DEXC   =    0.000                                                            
   RMAX   =    2.347    core radius for proj-oper                               
   RAUG   =    1.300    factor for augmentation sphere                          
   RDEP   =    2.324    radius for radial grids                                 
   RDEPT  =    1.788    core radius for aug-charge                              
                                                                                
   Atomic configuration                                                         
    9 entries                                                                   
     n  l   j            E        occ.                                          
     1  0  0.50     -9524.6913   2.0000                                         
     2  0  0.50     -1158.1882   2.0000                                         
     2  1  1.50     -1003.8506   6.0000                                         
     3  0  0.50      -129.2194   2.0000                                         
     3  1  1.50       -83.3890   6.0000                                         
     3  2  2.50       -10.1410  10.0000                                         
     4  0  0.50        -5.9785   2.0000                                         
     4  1  0.50        -4.0817   0.0000                                         
     4  3  2.50        -1.3606   0.0000                                         
   Description                                                                  
     l       E           TYP  RCUT    TYP  RCUT                                 
     2    -10.1410010     23  2.300                                             
     2    -11.5015836     23  2.300                                             
     0     -5.9785163     23  2.300                                             
     0      1.1858015     23  2.300                                             
     1     -2.7211652     23  2.300                                             
     1     13.2444212     23  2.300                                             
  local pseudopotential read in
  partial core-charges read in
  partial kinetic energy density read in
  atomic valenz-charges read in
  non local Contribution for L=           2  read in
    real space projection operators read in
  non local Contribution for L=           2  read in
    real space projection operators read in
  non local Contribution for L=           0  read in
    real space projection operators read in
  non local Contribution for L=           0  read in
    real space projection operators read in
  non local Contribution for L=           1  read in
    real space projection operators read in
  non local Contribution for L=           1  read in
    real space projection operators read in
    PAW grid and wavefunctions read in
 
   number of l-projection  operators is LMAX  =           6
   number of lm-projection operators is LMMAX =          18
 
 POTCAR:    PAW_PBE H 15Jun2001                   
   VRHFIN =H: ultrasoft test                                                    
   LEXCH  = PE                                                                  
   EATOM  =    12.4884 eV,    0.9179 Ry                                         
                                                                                
   TITEL  = PAW_PBE H 15Jun2001                                                 
   LULTRA =        F    use ultrasoft PP ?                                      
   IUNSCR =        0    unscreen: 0-lin 1-nonlin 2-no                           
   RPACOR =    0.000    partial core radius                                     
   POMASS =    1.000; ZVAL   =    1.000    mass and valenz                      
   RCORE  =    1.100    outmost cutoff radius                                   
   RWIGS  =    0.700; RWIGS  =    0.370    wigner-seitz radius (au A)           
   ENMAX  =  250.000; ENMIN  =  200.000 eV                                      
   RCLOC  =    0.701    cutoff for local pot                                    
   LCOR   =        T    correct aug charges                                     
   LPAW   =        T    paw PP                                                  
   EAUG   =  400.000                                                            
   RMAX   =    1.123    core radius for proj-oper                               
   RAUG   =    1.200    factor for augmentation sphere                          
   RDEP   =    1.112    radius for radial grids                                 
   RDEPT  =    0.926    core radius for aug-charge                              
                                                                                
   Atomic configuration                                                         
    2 entries                                                                   
     n  l   j            E        occ.                                          
     1  0  0.50        -6.4927   1.0000                                         
     2  1  0.50        -3.4015   0.0000                                         
   Description                                                                  
     l       E           TYP  RCUT    TYP  RCUT                                 
     0     -6.4927494     23  1.100                                             
     0      6.8029130     23  1.100                                             
     1     -4.0817478     23  1.100                                             
  local pseudopotential read in
  atomic valenz-charges read in
  non local Contribution for L=           0  read in
    real space projection operators read in
  non local Contribution for L=           0  read in
    real space projection operators read in
  non local Contribution for L=           1  read in
    real space projection operators read in
    PAW grid and wavefunctions read in
 
   number of l-projection  operators is LMAX  =           3
   number of lm-projection operators is LMMAX =           5
 
 POTCAR:    PAW_PBE N 08Apr2002                   
   VRHFIN =N: s2p3                                                              
   LEXCH  = PE                                                                  
   EATOM  =   264.5486 eV,   19.4438 Ry                                         
                                                                                
   TITEL  = PAW_PBE N 08Apr2002                                                 
   LULTRA =        F    use ultrasoft PP ?                                      
   IUNSCR =        1    unscreen: 0-lin 1-nonlin 2-no                           
   RPACOR =    1.200    partial core radius                                     
   POMASS =   14.001; ZVAL   =    5.000    mass and valenz                      
   RCORE  =    1.500    outmost cutoff radius                                   
   RWIGS  =    1.400; RWIGS  =    0.741    wigner-seitz radius (au A)           
   ENMAX  =  400.000; ENMIN  =  300.000 eV                                      
   ICORE  =        2    local potential                                         
   LCOR   =        T    correct aug charges                                     
   LPAW   =        T    paw PP                                                  
   EAUG   =  627.112                                                            
   DEXC   =    0.000                                                            
   RMAX   =    1.529    core radius for proj-oper                               
   RAUG   =    1.300    factor for augmentation sphere                          
   RDEP   =    1.514    radius for radial grids                                 
   RDEPT  =    1.338    core radius for aug-charge                              
                                                                                
   Atomic configuration                                                         
    4 entries                                                                   
     n  l   j            E        occ.                                          
     1  0  0.50      -384.7179   2.0000                                         
     2  0  0.50       -18.5828   2.0000                                         
     2  1  0.50        -7.0898   3.0000                                         
     3  2  1.50        -6.8029   0.0000                                         
   Description                                                                  
     l       E           TYP  RCUT    TYP  RCUT                                 
     0    -18.5828119     23  1.200                                             
     0    -13.5018863     23  1.200                                             
     1     -7.0897853     23  1.500                                             
     1      9.5240782     23  1.500                                             
     2     -6.8029130      7  1.500                                             
  local pseudopotential read in
  partial core-charges read in
  partial kinetic energy density read in
  atomic valenz-charges read in
  non local Contribution for L=           0  read in
    real space projection operators read in
  non local Contribution for L=           0  read in
    real space projection operators read in
  non local Contribution for L=           1  read in
    real space projection operators read in
  non local Contribution for L=           1  read in
    real space projection operators read in
    PAW grid and wavefunctions read in
 
   number of l-projection  operators is LMAX  =           4
   number of lm-projection operators is LMMAX =           8
 
 POTCAR:    PAW_PBE O 08Apr2002                   
   VRHFIN =O: s2p4                                                              
   LEXCH  = PE                                                                  
   EATOM  =   432.3788 eV,   31.7789 Ry                                         
                                                                                
   TITEL  = PAW_PBE O 08Apr2002                                                 
   LULTRA =        F    use ultrasoft PP ?                                      
   IUNSCR =        1    unscreen: 0-lin 1-nonlin 2-no                           
   RPACOR =    1.200    partial core radius                                     
   POMASS =   16.000; ZVAL   =    6.000    mass and valenz                      
   RCORE  =    1.520    outmost cutoff radius                                   
   RWIGS  =    1.550; RWIGS  =    0.820    wigner-seitz radius (au A)           
   ENMAX  =  400.000; ENMIN  =  300.000 eV                                      
   ICORE  =        2    local potential                                         
   LCOR   =        T    correct aug charges                                     
   LPAW   =        T    paw PP                                                  
   EAUG   =  605.392                                                            
   DEXC   =    0.000                                                            
   RMAX   =    1.553    core radius for proj-oper                               
   RAUG   =    1.300    factor for augmentation sphere                          
   RDEP   =    1.550    radius for radial grids                                 
   RDEPT  =    1.329    core radius for aug-charge                              
                                                                                
   Atomic configuration                                                         
    4 entries                                                                   
     n  l   j            E        occ.                                          
     1  0  0.50      -514.6923   2.0000                                         
     2  0  0.50       -23.9615   2.0000                                         
     2  1  0.50        -9.0305   4.0000                                         
     3  2  1.50        -9.5241   0.0000                                         
   Description                                                                  
     l       E           TYP  RCUT    TYP  RCUT                                 
     0    -23.9615318     23  1.200                                             
     0     -9.5240782     23  1.200                                             
     1     -9.0304911     23  1.520                                             
     1      8.1634956     23  1.520                                             
     2     -9.5240782      7  1.500                                             
  local pseudopotential read in
  partial core-charges read in
  partial kinetic energy density read in
  kinetic energy density of atom read in
  atomic valenz-charges read in
  non local Contribution for L=           0  read in
    real space projection operators read in
  non local Contribution for L=           0  read in
    real space projection operators read in
  non local Contribution for L=           1  read in
    real space projection operators read in
  non local Contribution for L=           1  read in
    real space projection operators read in
    PAW grid and wavefunctions read in
 
   number of l-projection  operators is LMAX  =           4
   number of lm-projection operators is LMMAX =           8
 
 Optimization of the real space projectors (new method)

 maximal supplied QI-value         = 25.13
 optimisation between [QCUT,QGAM] = [ 12.32, 24.88] = [ 42.47,173.37] Ry 
 Optimized for a Real-space Cutoff    1.06 Angstroem

   l    n(q)    QCUT    max X(q) W(low)/X(q) W(high)/X(q)  e(spline) 
   0      8    12.315   115.676    0.34E-03    0.18E-03    0.23E-06
   0      8    12.315    87.132    0.34E-03    0.18E-03    0.22E-06
   1      7    12.315     4.429    0.45E-03    0.12E-03    0.18E-06
   1      7    12.315     2.733    0.35E-03    0.97E-04    0.15E-06
 Optimization of the real space projectors (new method)

 maximal supplied QI-value         = 16.25
 optimisation between [QCUT,QGAM] = [ 12.51, 25.03] = [ 43.85,175.40] Ry 
 Optimized for a Real-space Cutoff    1.31 Angstroem

   l    n(q)    QCUT    max X(q) W(low)/X(q) W(high)/X(q)  e(spline) 
   2      9    12.514    46.356    0.36E-03    0.54E-03    0.48E-06
   2      9    12.514    41.843    0.37E-03    0.56E-03    0.49E-06
   0     10    12.514    48.958    0.13E-03    0.28E-03    0.23E-06
   0     10    12.514    32.776    0.12E-03    0.26E-03    0.22E-06
   1      9    12.514    17.787    0.44E-03    0.44E-04    0.36E-06
   1      9    12.514    14.435    0.39E-03    0.39E-04    0.32E-06
 Optimization of the real space projectors (new method)

 maximal supplied QI-value         = 34.20
 optimisation between [QCUT,QGAM] = [ 12.31, 24.97] = [ 42.46,174.58] Ry 
 Optimized for a Real-space Cutoff    1.00 Angstroem

   l    n(q)    QCUT    max X(q) W(low)/X(q) W(high)/X(q)  e(spline) 
   0      7    12.313    19.460    0.14E-03    0.42E-03    0.16E-06
   0      7    12.313    12.209    0.12E-03    0.40E-03    0.16E-06
   1      7    12.313     4.655    0.33E-03    0.59E-03    0.89E-07
 Optimization of the real space projectors (new method)

 maximal supplied QI-value         = 25.13
 optimisation between [QCUT,QGAM] = [ 12.32, 24.88] = [ 42.47,173.37] Ry 
 Optimized for a Real-space Cutoff    1.20 Angstroem

   l    n(q)    QCUT    max X(q) W(low)/X(q) W(high)/X(q)  e(spline) 
   0      9    12.315    79.467    0.14E-03    0.22E-04    0.37E-06
   0      9    12.315    66.151    0.14E-03    0.23E-04    0.36E-06
   1      8    12.315    22.077    0.30E-03    0.54E-03    0.45E-06
   1      8    12.315    15.894    0.30E-03    0.55E-03    0.45E-06
 Optimization of the real space projectors (new method)

 maximal supplied QI-value         = 24.76
 optimisation between [QCUT,QGAM] = [ 12.38, 25.00] = [ 42.90,175.06] Ry 
 Optimized for a Real-space Cutoff    1.13 Angstroem

   l    n(q)    QCUT    max X(q) W(low)/X(q) W(high)/X(q)  e(spline) 
   0      8    12.378    20.381    0.16E-03    0.54E-05    0.27E-06
   0      8    12.378    15.268    0.17E-03    0.61E-05    0.29E-06
   1      8    12.378     5.964    0.38E-03    0.23E-03    0.28E-06
   1      8    12.378     5.382    0.33E-03    0.20E-03    0.25E-06
  PAW_PBE C 08Apr2002                   :
 energy of atom  1       EATOM= -147.1560
 kinetic energy error for atom=    0.0057 (will be added to EATOM!!)
  PAW_PBE Zn 06Sep2000                  :
 energy of atom  2       EATOM=-1748.8345
 kinetic energy error for atom=    0.0020 (will be added to EATOM!!)
  PAW_PBE H 15Jun2001                   :
 energy of atom  3       EATOM=  -12.4884
 kinetic energy error for atom=    0.0004 (will be added to EATOM!!)
  PAW_PBE N 08Apr2002                   :
 energy of atom  4       EATOM= -264.5486
 kinetic energy error for atom=    0.0103 (will be added to EATOM!!)
  PAW_PBE O 08Apr2002                   :
 energy of atom  5       EATOM= -432.3788
 kinetic energy error for atom=    0.0168 (will be added to EATOM!!)
 
 
 POSCAR: Zn_H
  positions in direct lattice
  velocities in cartesian coordinates
 exchange correlation table for  LEXCH =        8
   RHO(1)=    0.500       N(1)  =     2000
   RHO(2)=  100.500       N(2)  =     4000
 


--------------------------------------------------------------------------------------------------------


 ion  position               nearest neighbor table
   1  0.909  0.958  0.136- 107 1.08 117 1.34  65 1.40
   2  0.818  0.952  0.423- 112 1.09 118 1.35  65 1.40
   3  0.910  0.798  0.909- 116 1.08 119 1.34  66 1.40
   4  0.591  0.458  0.636- 110 1.08 120 1.34  67 1.40
   5  0.681  0.304  0.122- 111 1.09 121 1.35  68 1.40
   6  0.180  0.804  0.122- 115 1.09 122 1.35  69 1.40
   7  0.682  0.452  0.923- 101 1.09 123 1.35  67 1.40
   8  0.590  0.298  0.408- 113 1.08 124 1.34  68 1.40
   9  0.320  0.452  0.423- 114 1.09 125 1.35  70 1.40
  10  0.089  0.798  0.409- 104 1.08 126 1.34  69 1.40
  11  0.179  0.952  0.923- 105 1.09 127 1.35  71 1.40
  12  0.320  0.304  0.622- 102 1.09 128 1.35  72 1.40
  13  0.819  0.804  0.622- 108 1.09 129 1.35  66 1.40
  14  0.088  0.958  0.636- 109 1.08 130 1.34  71 1.40
  15  0.411  0.298  0.908- 106 1.08 131 1.34  72 1.40
  16  0.411  0.458  0.136- 103 1.08 132 1.34  70 1.40
  17  0.733  0.032  0.132- 141 1.23 133 1.42  33 1.48
  18  0.857  0.050  0.441- 142 1.23 133 1.41  34 1.48
  19  0.858  0.706  0.605- 143 1.23 134 1.41  35 1.48
  20  0.643  0.550  0.940- 144 1.23 135 1.41  36 1.48
  21  0.642  0.206  0.104- 145 1.23 136 1.41  37 1.48
  22  0.265  0.724  0.413- 146 1.23 137 1.42  38 1.48
  23  0.767  0.532  0.632- 147 1.23 135 1.42  39 1.48
  24  0.766  0.224  0.413- 148 1.23 136 1.42  40 1.48
  25  0.235  0.532  0.131- 149 1.23 138 1.42  41 1.48
  26  0.141  0.706  0.105- 150 1.23 137 1.41  42 1.48
  27  0.141  0.050  0.940- 151 1.23 139 1.41  43 1.48
  28  0.359  0.206  0.605- 152 1.23 140 1.41  44 1.48
  29  0.733  0.724  0.913- 153 1.23 134 1.42  45 1.48
  30  0.265  0.032  0.632- 154 1.23 139 1.42  46 1.48
  31  0.235  0.224  0.913- 155 1.23 140 1.42  47 1.48
  32  0.359  0.550  0.440- 156 1.23 138 1.41  48 1.48
  33  0.710  0.077  0.129-  49 1.39  73 1.42  17 1.48
  34  0.832  0.094  0.432-  50 1.39  73 1.42  18 1.48
  35  0.833  0.661  0.614-  51 1.39  74 1.42  19 1.48
  36  0.668  0.594  0.932-  52 1.39  75 1.42  20 1.48
  37  0.667  0.161  0.113-  53 1.39  76 1.42  21 1.48
  38  0.289  0.679  0.417-  54 1.39  77 1.42  22 1.48
  39  0.790  0.577  0.629-  55 1.39  75 1.42  23 1.48
  40  0.789  0.179  0.416-  56 1.39  76 1.42  24 1.48
  41  0.211  0.577  0.128-  57 1.39  78 1.42  25 1.48
  42  0.167  0.661  0.114-  58 1.39  77 1.42  26 1.48
  43  0.167  0.094  0.932-  59 1.39  79 1.42  27 1.48
  44  0.333  0.161  0.614-  60 1.39  80 1.42  28 1.48
  45  0.711  0.679  0.916-  61 1.39  74 1.42  29 1.48
  46  0.289  0.077  0.629-  62 1.39  79 1.42  30 1.48
  47  0.211  0.179  0.917-  63 1.39  80 1.42  31 1.48
  48  0.333  0.594  0.431-  64 1.39  78 1.42  32 1.48
  49  0.640  0.089  0.978-  88 1.09  33 1.39  53 1.41
  50  0.880  0.124  0.575-  99 1.09  34 1.39  56 1.41
  51  0.881  0.632  0.470-  93 1.09  35 1.39  55 1.41
  52  0.620  0.624  0.075-  90 1.09  36 1.39  61 1.41
  53  0.618  0.132  0.970-  98 1.09  37 1.39  49 1.41
  54  0.359  0.666  0.568-  96 1.09  38 1.39  64 1.41
  55  0.860  0.590  0.478-  86 1.09  39 1.39  51 1.41
  56  0.859  0.166  0.567-  87 1.09  40 1.39  50 1.41
  57  0.141  0.589  0.977-  95 1.09  41 1.39  58 1.41
  58  0.119  0.632  0.970-  91 1.09  42 1.39  57 1.41
  59  0.119  0.124  0.075-  92 1.09  43 1.39  63 1.41
  60  0.381  0.132  0.470-  85 1.09  44 1.39  62 1.41
  61  0.641  0.666  0.067-  89 1.09  45 1.39  52 1.41
  62  0.359  0.089  0.478- 100 1.09  46 1.39  60 1.41
  63  0.141  0.166  0.068-  94 1.09  47 1.39  59 1.41
  64  0.381  0.624  0.575-  97 1.09  48 1.39  54 1.41
  65  0.838  0.979  0.285-   1 1.40   2 1.40 133 1.43
  66  0.838  0.777  0.760-   3 1.40  13 1.40 134 1.42
  67  0.662  0.479  0.785-   4 1.40   7 1.40 135 1.42
  68  0.661  0.276  0.260-   8 1.40   5 1.40 136 1.42
  69  0.160  0.777  0.260-  10 1.40   6 1.40 137 1.43
  70  0.340  0.479  0.284-  16 1.40   9 1.40 138 1.43
  71  0.160  0.979  0.785-  14 1.40  11 1.40 139 1.43
  72  0.340  0.277  0.760-  15 1.40  12 1.40 140 1.43
  73  0.760  0.106  0.277-  33 1.42  34 1.42  76 1.43
  74  0.761  0.649  0.769-  45 1.42  35 1.42  75 1.43
  75  0.740  0.606  0.777-  39 1.42  36 1.42  74 1.43
  76  0.739  0.149  0.268-  40 1.42  37 1.42  73 1.43
  77  0.239  0.649  0.269-  38 1.42  42 1.42  78 1.43
  78  0.261  0.607  0.276-  41 1.42  48 1.42  77 1.43
  79  0.239  0.107  0.777-  46 1.42  43 1.42  80 1.43
  80  0.261  0.149  0.769-  47 1.42  44 1.42  79 1.43
  81  0.040  0.878  0.023- 122 1.99 127 1.99 119 2.02 117 2.02
  82  0.958  0.878  0.523- 129 1.99 118 1.99 126 2.02 130 2.02
  83  0.460  0.378  0.522- 128 1.99 125 1.99 124 2.02 120 2.02
  84  0.541  0.378  0.022- 121 1.99 123 1.99 131 2.02 132 2.02
  85  0.436  0.142  0.352-  60 1.09
  86  0.897  0.566  0.366-  55 1.09
  87  0.896  0.190  0.680-  56 1.09
  88  0.602  0.066  0.866-  49 1.09
  89  0.604  0.690  0.180-  61 1.09
  90  0.565  0.614  0.193-  52 1.09
  91  0.064  0.642  0.852-  58 1.09
  92  0.064  0.114  0.193-  59 1.09
  93  0.936  0.642  0.352-  51 1.09
  94  0.104  0.190  0.180-  63 1.09
  95  0.104  0.566  0.865-  57 1.09
  96  0.396  0.690  0.680-  54 1.09
  97  0.436  0.614  0.693-  64 1.09
  98  0.564  0.142  0.852-  53 1.09
  99  0.935  0.114  0.693-  50 1.09
 100  0.396  0.066  0.365-  62 1.09
 101  0.730  0.456  0.063-   7 1.09
 102  0.272  0.299  0.482-  12 1.09
 103  0.447  0.468  0.002-  16 1.08
 104  0.053  0.788  0.542-  10 1.08
 105  0.227  0.957  0.064-  11 1.09
 106  0.447  0.288  0.042-  15 1.08
 107  0.945  0.968  0.003-   1 1.08
 108  0.771  0.799  0.482-  13 1.09
 109  0.053  0.968  0.503-  14 1.08
 110  0.555  0.468  0.503-   4 1.08
 111  0.729  0.299  0.981-   5 1.09
 112  0.770  0.956  0.563-   2 1.09
 113  0.554  0.288  0.541-   8 1.08
 114  0.272  0.457  0.563-   9 1.09
 115  0.228  0.799  0.982-   6 1.09
 116  0.945  0.788  0.042-   3 1.08
 117  0.932  0.920  0.184-   1 1.34 118 1.37  81 2.02
 118  0.876  0.916  0.360-   2 1.35 117 1.37  82 1.99
 119  0.933  0.836  0.861-   3 1.34 129 1.37  81 2.02
 120  0.567  0.420  0.683-   4 1.34 123 1.37  83 2.02
 121  0.624  0.340  0.185-   5 1.35 124 1.37  84 1.99
 122  0.122  0.840  0.185-   6 1.35 126 1.37  81 1.99
 123  0.624  0.416  0.859-   7 1.35 120 1.37  84 1.99
 124  0.567  0.336  0.361-   8 1.34 121 1.37  83 2.02
 125  0.378  0.416  0.360-   9 1.35 132 1.37  83 1.99
 126  0.066  0.836  0.361-  10 1.34 122 1.37  82 2.02
 127  0.122  0.916  0.860-  11 1.35 130 1.37  81 1.99
 128  0.378  0.340  0.685-  12 1.35 131 1.37  83 1.99
 129  0.876  0.840  0.685-  13 1.35 119 1.37  82 1.99
 130  0.065  0.920  0.684-  14 1.34 127 1.37  82 2.02
 131  0.434  0.336  0.861-  15 1.34 128 1.37  84 2.02
 132  0.434  0.420  0.183-  16 1.34 125 1.37  84 2.02
 133  0.803  0.021  0.292-  18 1.41  17 1.42  65 1.43
 134  0.804  0.734  0.753-  19 1.41  29 1.42  66 1.42
 135  0.697  0.521  0.792-  20 1.41  23 1.42  67 1.42
 136  0.696  0.234  0.253-  21 1.41  24 1.42  68 1.42
 137  0.195  0.734  0.254-  26 1.41  22 1.42  69 1.43
 138  0.305  0.522  0.291-  32 1.41  25 1.42  70 1.43
 139  0.194  0.022  0.792-  27 1.41  30 1.42  71 1.43
 140  0.305  0.234  0.753-  28 1.41  31 1.42  72 1.43
 141  0.694  0.006  0.003-  17 1.23
 142  0.922  0.039  0.570-  18 1.23
 143  0.923  0.717  0.476-  19 1.23
 144  0.578  0.538  0.069-  20 1.23
 145  0.576  0.217  0.976-  21 1.23
 146  0.304  0.750  0.542-  22 1.23
 147  0.806  0.506  0.503-  23 1.23
 148  0.805  0.250  0.541-  24 1.23
 149  0.196  0.506  0.002-  25 1.23
 150  0.075  0.717  0.976-  26 1.23
 151  0.075  0.039  0.069-  27 1.23
 152  0.424  0.217  0.476-  28 1.23
 153  0.694  0.750  0.042-  29 1.23
 154  0.303  0.006  0.503-  30 1.23
 155  0.196  0.250  0.042-  31 1.23
 156  0.424  0.539  0.569-  32 1.23
 

IMPORTANT INFORMATION: All symmetrisations will be switched off!
NOSYMM: (Re-)initialisation of all symmetry stuff for point group C_1.


----------------------------------------------------------------------------------------

                                     Primitive cell                                     

  volume of cell :    2419.2114

  direct lattice vectors                    reciprocal lattice vectors
    10.930248344 -0.001061631 -0.002426736     0.091489230 -0.000004028  0.000001633
     0.001476682 32.619001368 -2.266254357     0.000003425  0.030792722  0.001953818
    -0.000140721 -0.432442104  6.815408342     0.000033715  0.010239171  0.147376034

  length of vectors
    10.930248665 32.697632349  6.829113929     0.091489230  0.030854646  0.147731301

  position of ions in fractional coordinates (direct lattice)
     0.909129884  0.957609017  0.136449052
     0.818159324  0.951927124  0.423176647
     0.909750280  0.798173057  0.908771479
     0.590569340  0.457598332  0.635946933
     0.681138559  0.303766011  0.121683703
     0.179656709  0.803769733  0.122127743
     0.681643271  0.451920660  0.922669569
     0.589879184  0.298131959  0.408213944
     0.320485326  0.452123117  0.422683559
     0.088617172  0.798159890  0.408849094
     0.179282797  0.952156804  0.923250686
     0.320019264  0.303764755  0.621816574
     0.818650141  0.803773877  0.622016938
     0.088423980  0.957672826  0.636191660
     0.411252048  0.298175736  0.908479934
     0.411321394  0.457672657  0.135721882
     0.732525074  0.032126064  0.132322314
     0.857036069  0.049990138  0.440550408
     0.858073113  0.705746619  0.604791980
     0.642776084  0.549961868  0.940283995
     0.641599846  0.205699925  0.104474150
     0.265274699  0.723642005  0.413443427
     0.767195738  0.532150533  0.632004846
     0.766214084  0.223551251  0.412643314
     0.234788995  0.532216543  0.131299677
     0.140819040  0.705679124  0.105194593
     0.140859388  0.050200934  0.940168386
     0.358907669  0.205671627  0.605132815
     0.733477661  0.723549556  0.912956575
     0.264980327  0.032215521  0.631706215
     0.234528974  0.223671745  0.913315837
     0.358906963  0.550168668  0.439856949
     0.709565368  0.076778855  0.128902178
     0.831505661  0.094295619  0.431777132
     0.832664391  0.661428820  0.613541896
     0.668281027  0.594273412  0.931656636
     0.667044838  0.161385849  0.113325211
     0.288709535  0.679010964  0.416739152
     0.790164603  0.576806664  0.628787349
     0.789008775  0.178900426  0.416214336
     0.211105767  0.576837517  0.128274174
     0.167033351  0.661394585  0.113653823
     0.167140574  0.094478188  0.931699689
     0.332735824  0.161391687  0.613747784
     0.710716035  0.678889330  0.916376175
     0.288685280  0.076834718  0.628592615
     0.211138586  0.179038456  0.916776732
     0.332675647  0.594448987  0.431464491
     0.639592870  0.089460443  0.977862147
     0.880152566  0.124057509  0.574999872
     0.881416701  0.631677092  0.470403803
     0.619646354  0.624017228  0.074947095
     0.618315023  0.131612610  0.970213268
     0.358717653  0.666379076  0.567861759
     0.860135376  0.589518913  0.477878048
     0.858853374  0.166211165  0.567382219
     0.140918736  0.589459384  0.977322171
     0.118828236  0.631586609  0.970196873
     0.119135609  0.124296634  0.075252225
     0.380902743  0.131567473  0.470367814
     0.640899173  0.666175101  0.067449445
     0.358837359  0.089442566  0.477640518
     0.141162058  0.166421760  0.067928152
     0.380723137  0.624251055  0.575095269
     0.837677155  0.979213465  0.285067901
     0.838329471  0.776514684  0.760186614
     0.662078150  0.479206021  0.784564947
     0.661333369  0.276485376  0.259713551
     0.160022745  0.776504796  0.260326929
     0.340039301  0.479360220  0.284323908
     0.159696630  0.979380708  0.784834517
     0.339739189  0.276512621  0.760043268
     0.759904275  0.106462540  0.276613024
     0.761082444  0.649234380  0.768618650
     0.739858220  0.606467563  0.776592290
     0.738659595  0.149223144  0.268499410
     0.238877824  0.649291107  0.268700652
     0.260863020  0.606554600  0.276386489
     0.238953546  0.106566281  0.776630220
     0.260941121  0.149302350  0.768833234
     0.039714894  0.877932573  0.022781851
     0.958437093  0.877863591  0.522650601
     0.460065142  0.377874938  0.522187969
     0.541349803  0.377878554  0.022134217
     0.435827880  0.141639527  0.352390048
     0.897431956  0.566007787  0.365621143
     0.896110632  0.189731669  0.679633615
     0.602306088  0.065931363  0.865660362
     0.603668533  0.689681216  0.179757489
     0.564977889  0.613840599  0.192962502
     0.063838490  0.641672365  0.852275949
     0.064317806  0.114215448  0.193341581
     0.936186678  0.641840561  0.352474218
     0.104358528  0.189976961  0.180433410
     0.104070754  0.565901752  0.864840757
     0.395535180  0.689927530  0.680440720
     0.435526682  0.614154047  0.693189560
     0.563547388  0.141754708  0.852177729
     0.934880558  0.113903152  0.693045368
     0.395673944  0.065876544  0.365230734
     0.729784389  0.456497585  0.062996095
     0.271834951  0.299158371  0.481533799
     0.446845301  0.467953903  0.002377395
     0.053011136  0.787842525  0.542029750
     0.227288622  0.956829246  0.063698713
     0.446925136  0.287864148  0.041656351
     0.944632443  0.967974514  0.003287057
     0.770566993  0.799160051  0.481647583
     0.052881538  0.967941213  0.502810316
     0.554996549  0.467962876  0.502809329
     0.729270729  0.299162715  0.981402534
     0.770051004  0.956498359  0.563490313
     0.554133632  0.287785298  0.541253670
     0.272492618  0.456785531  0.563098561
     0.227747971  0.799153574  0.981797088
     0.945406035  0.787842707  0.041924766
     0.932380290  0.919836428  0.183955308
     0.875855767  0.916010717  0.359939735
     0.932797848  0.835949821  0.861213956
     0.567356116  0.419821870  0.683443701
     0.623629925  0.339719356  0.184877337
     0.122082499  0.839717304  0.185262309
     0.623943515  0.416001371  0.859427367
     0.566926434  0.335920800  0.360719653
     0.377972368  0.416161054  0.359596334
     0.065526511  0.835932963  0.361253014
     0.121804833  0.916187740  0.860175928
     0.377654641  0.339710799  0.684828567
     0.876175730  0.839726572  0.685243801
     0.065359565  0.919909335  0.683965190
     0.434320729  0.335940575  0.860774187
     0.434403808  0.419904629  0.183436184
     0.803068820  0.021400004  0.292115228
     0.803966883  0.734308588  0.753195909
     0.696670136  0.521396839  0.791707174
     0.695703629  0.234282120  0.252804761
     0.194659750  0.734321130  0.253569972
     0.305347173  0.521537584  0.291170254
     0.194407180  0.021554817  0.791568240
     0.305081099  0.234330972  0.753390834
     0.693596900  0.005605801  0.003452026
     0.922305547  0.038539376  0.569530065
     0.923308773  0.717234512  0.475892318
     0.577581331  0.538487966  0.069267233
     0.576329726  0.217164267  0.975507233
     0.303951089  0.750190281  0.542409866
     0.806122693  0.505644163  0.503100147
     0.805288975  0.250074278  0.541379271
     0.196292143  0.505676791  0.002138994
     0.075236689  0.717060645  0.976405034
     0.075443018  0.038817562  0.069109170
     0.424459759  0.217038585  0.476319838
     0.694402171  0.750049033  0.041763409
     0.303455065  0.005666144  0.502606336
     0.195855860  0.250233530  0.042174932
     0.424306408  0.538771414  0.568824170

  ion indices of the primitive-cell ions
   primitive index   ion index
                 1           1
                 2           2
                 3           3
                 4           4
                 5           5
                 6           6
                 7           7
                 8           8
                 9           9
                10          10
                11          11
                12          12
                13          13
                14          14
                15          15
                16          16
                17          17
                18          18
                19          19
                20          20
                21          21
                22          22
                23          23
                24          24
                25          25
                26          26
                27          27
                28          28
                29          29
                30          30
                31          31
                32          32
                33          33
                34          34
                35          35
                36          36
                37          37
                38          38
                39          39
                40          40
                41          41
                42          42
                43          43
                44          44
                45          45
                46          46
                47          47
                48          48
                49          49
                50          50
                51          51
                52          52
                53          53
                54          54
                55          55
                56          56
                57          57
                58          58
                59          59
                60          60
                61          61
                62          62
                63          63
                64          64
                65          65
                66          66
                67          67
                68          68
                69          69
                70          70
                71          71
                72          72
                73          73
                74          74
                75          75
                76          76
                77          77
                78          78
                79          79
                80          80
                81          81
                82          82
                83          83
                84          84
                85          85
                86          86
                87          87
                88          88
                89          89
                90          90
                91          91
                92          92
                93          93
                94          94
                95          95
                96          96
                97          97
                98          98
                99          99
               100         100
               101         101
               102         102
               103         103
               104         104
               105         105
               106         106
               107         107
               108         108
               109         109
               110         110
               111         111
               112         112
               113         113
               114         114
               115         115
               116         116
               117         117
               118         118
               119         119
               120         120
               121         121
               122         122
               123         123
               124         124
               125         125
               126         126
               127         127
               128         128
               129         129
               130         130
               131         131
               132         132
               133         133
               134         134
               135         135
               136         136
               137         137
               138         138
               139         139
               140         140
               141         141
               142         142
               143         143
               144         144
               145         145
               146         146
               147         147
               148         148
               149         149
               150         150
               151         151
               152         152
               153         153
               154         154
               155         155
               156         156

----------------------------------------------------------------------------------------

 
 

Automatic generation of k-mesh.
 generate k-points for:    2    1    4
Space group operators:
 irot       det(A)        alpha          n_x          n_y          n_z        tau_x        tau_y        tau_z
    1     1.000000     0.000001     1.000000     0.000000     0.000000     0.000000     0.000000     0.000000
 
 Subroutine IBZKPT returns following result:
 ===========================================
 
 Found      6 irreducible k-points:
 
 Following reciprocal coordinates:
            Coordinates               Weight
  0.000000  0.000000  0.000000      1.000000
  0.500000 -0.000000  0.000000      1.000000
 -0.000000  0.000000  0.250000      2.000000
  0.500000  0.000000  0.250000      2.000000
 -0.000000  0.000000  0.500000      1.000000
  0.500000  0.000000  0.500000      1.000000
 
 Following cartesian coordinates:
            Coordinates               Weight
  0.000000  0.000000  0.000000      1.000000
  0.045745 -0.000002  0.000001      1.000000
  0.000008  0.002560  0.036844      2.000000
  0.045753  0.002558  0.036845      2.000000
  0.000017  0.005120  0.073688      1.000000
  0.045761  0.005118  0.073689      1.000000
 


--------------------------------------------------------------------------------------------------------




 Dimension of arrays:
   k-points           NKPTS =      6   k-points in BZ     NKDIM =      6   number of bands    NBANDS=    400
   number of dos      NEDOS =    301   number of ions     NIONS =    156
   non local maximal  LDIM  =      6   non local SUM 2l+1 LMDIM =     18
   total plane-waves  NPLWV = 576240
   max r-space proj   IRMAX =   2276   max aug-charges    IRDMAX=   7298
   dimension x,y,z NGX =    70 NGY =  196 NGZ =   42
   dimension x,y,z NGXF=   140 NGYF=  392 NGZF=   84
   support grid    NGXF=   140 NGYF=  392 NGZF=   84
   ions per type =              80   4  32  24  16
   NGX,Y,Z   is equivalent  to a cutoff of  10.65,  9.97, 10.22 a.u.
   NGXF,Y,Z  is equivalent  to a cutoff of  21.29, 19.93, 20.45 a.u.

 SYSTEM =  flex_MOF                                
 POSCAR =  Zn_H                                    

 Startparameter for this run:
   NWRITE =      2    write-flag & timer
   PREC   = normal    normal or accurate (medium, high low for compatibility)
   ISTART =      0    job   : 0-new  1-cont  2-samecut
   ICHARG =      2    charge: 1-file 2-atom 10-const
   ISPIN  =      1    spin polarized calculation?
   LNONCOLLINEAR =      F non collinear calculations
   LSORBIT =      F    spin-orbit coupling
   INIWAV =      1    electr: 0-lowe 1-rand  2-diag
   LASPH  =      F    aspherical Exc in radial PAW
   METAGGA=      F    non-selfconsistent MetaGGA calc.

 Electronic Relaxation 1
   ENCUT  =  600.0 eV  44.10 Ry    6.64 a.u.  21.83 65.31 13.64*2*pi/ulx,y,z
   ENINI  =  600.0     initial cutoff
   ENAUG  =  644.9 eV  augmentation charge cutoff
   NELM   =     80;   NELMIN=  4; NELMDL=-12     # of ELM steps 
   EDIFF  = 0.1E-05   stopping-criterion for ELM
   LREAL  =      T    real-space projection
   NLSPLINE    = F    spline interpolate recip. space projectors
   LCOMPAT=      F    compatible to vasp.4.4
   GGA_COMPAT  = T    GGA compatible to vasp.4.4-vasp.4.6
   LMAXPAW     = -100 max onsite density
   LMAXMIX     =    2 max onsite mixed and CHGCAR
   VOSKOWN=      0    Vosko Wilk Nusair interpolation
   ROPT   =   -0.00050  -0.00050  -0.00050  -0.00050
   ROPT   =   -0.00050
 Ionic relaxation
   EDIFFG = -.1E-01   stopping-criterion for IOM
   NSW    =   1000    number of steps for IOM
   NBLOCK =      1;   KBLOCK =   1000    inner block; outer block 
   IBRION =      2    ionic relax: 0-MD 1-quasi-New 2-CG
   NFREE  =      1    steps in history (QN), initial steepest desc. (CG)
   ISIF   =      4    stress and relaxation
   IWAVPR =     11    prediction:  0-non 1-charg 2-wave 3-comb
   ISYM   =      0    0-nonsym 1-usesym 2-fastsym
   LCORR  =      T    Harris-Foulkes like correction to forces

   POTIM  = 0.5000    time-step for ionic-motion
   TEIN   =    0.0    initial temperature
   TEBEG  =    0.0;   TEEND  =   0.0 temperature during run
   SMASS  =  -3.00    Nose mass-parameter (am)
   estimated Nose-frequenzy (Omega)   =  0.10E-29 period in steps = 0.13E+47 mass=  -0.273E-26a.u.
   SCALEE = 1.0000    scale energy and forces
   NPACO  =    256;   APACO  = 16.0  distance and # of slots for P.C.
   PSTRESS=    0.0 pullay stress

  Mass of Ions in am
   POMASS =  12.01 65.39  1.00 14.00 16.00
  Ionic Valenz
   ZVAL   =   4.00 12.00  1.00  5.00  6.00
  Atomic Wigner-Seitz radii
   RWIGS  =  -1.00 -1.00 -1.00 -1.00 -1.00
  virtual crystal weights 
   VCA    =   1.00  1.00  1.00  1.00  1.00
   NELECT =     616.0000    total number of electrons
   NUPDOWN=      -1.0000    fix difference up-down

 DOS related values:
   EMIN   =  10.00;   EMAX   =-10.00  energy-range for DOS
   EFERMI =   0.00
   ISMEAR =     0;   SIGMA  =   0.05  broadening in eV -4-tet -1-fermi 0-gaus

 Electronic relaxation 2 (details)
   IALGO  =     48    algorithm
   LDIAG  =      T    sub-space diagonalisation (order eigenvalues)
   LSUBROT=      F    optimize rotation matrix (better conditioning)
   TURBO    =      0    0=normal 1=particle mesh
   IRESTART =      0    0=no restart 2=restart with 2 vectors
   NREBOOT  =      0    no. of reboots
   NMIN     =      0    reboot dimension
   EREF     =   0.00    reference energy to select bands
   IMIX   =      4    mixing-type and parameters
     AMIX     =   0.40;   BMIX     =  1.00
     AMIX_MAG =   1.60;   BMIX_MAG =  1.00
     AMIN     =   0.10
     WC   =   100.;   INIMIX=   1;  MIXPRE=   1;  MAXMIX= -45

 Intra band minimization:
   WEIMIN = 0.0010     energy-eigenvalue tresh-hold
   EBREAK =  0.63E-09  absolut break condition
   DEPER  =   0.30     relativ break condition  

   TIME   =   0.40     timestep for ELM

  volume/ion in A,a.u.               =      15.51       104.65
  Fermi-wavevector in a.u.,A,eV,Ry     =   1.037633  1.960842 14.649152  1.076682
  Thomas-Fermi vector in A             =   2.172080
 
 Write flags
   LWAVE        =      T    write WAVECAR
   LDOWNSAMPLE  =      F    k-point downsampling of WAVECAR
   LCHARG       =      T    write CHGCAR
   LVTOT        =      F    write LOCPOT, total local potential
   LVHAR        =      F    write LOCPOT, Hartree potential only
   LELF         =      F    write electronic localiz. function (ELF)
   LORBIT       =      0    0 simple, 1 ext, 2 COOP (PROOUT), +10 PAW based schemes


 Dipole corrections
   LMONO  =      F    monopole corrections only (constant potential shift)
   LDIPOL =      F    correct potential (dipole corrections)
   IDIPOL =      0    1-x, 2-y, 3-z, 4-all directions 
   EPSILON=  1.0000000 bulk dielectric constant

 Exchange correlation treatment:
   GGA     =    PE    GGA type
   LEXCH   =     8    internal setting for exchange type
   VOSKOWN=      0    Vosko Wilk Nusair interpolation
   LHFCALC =     F    Hartree Fock is set to
   LHFONE  =     F    Hartree Fock one center treatment
   AEXX    =    0.0000 exact exchange contribution

 Linear response parameters
   LEPSILON=     F    determine dielectric tensor
   LRPA    =     F    only Hartree local field effects (RPA)
   LNABLA  =     F    use nabla operator in PAW spheres
   LVEL    =     F    velocity operator in full k-point grid
   LINTERFAST=   F  fast interpolation
   KINTER  =     0    interpolate to denser k-point grid
   CSHIFT  =0.1000    complex shift for real part using Kramers Kronig
   OMEGAMAX=  -1.0    maximum frequency
   DEG_THRESHOLD= 0.2000000E-02 threshold for treating states as degnerate
   RTIME   =   -0.100 relaxation time in fs
  (WPLASMAI=    0.000 imaginary part of plasma frequency in eV, 0.658/RTIME)
   DFIELD  = 0.0000000 0.0000000 0.0000000 field for delta impulse in time
 
 Orbital magnetization related:
   ORBITALMAG=     F  switch on orbital magnetization
   LCHIMAG   =     F  perturbation theory with respect to B field
   DQ        =  0.001000  dq finite difference perturbation B field
   LLRAUG    =     F  two centre corrections for induced B field



--------------------------------------------------------------------------------------------------------


 conjugate gradient relaxation of ions
 charge density and potential will be updated during run
 non-spin polarized calculation
 RMM-DIIS sequential band-by-band
 perform sub-space diagonalisation
    before iterative eigenvector-optimisation
 modified Broyden-mixing scheme, WC =      100.0
 initial mixing is a Kerker type mixing with AMIX =  0.4000 and BMIX =      1.0000
 Hartree-type preconditioning will be used
 using additional bands           92
 real space projection scheme for non local part
 use partial core corrections
 calculate Harris-corrections to forces 
   (improved forces if not selfconsistent)
 use gradient corrections 
 use of overlap-Matrix (Vanderbilt PP)
 Gauss-broadening in eV      SIGMA  =   0.05


--------------------------------------------------------------------------------------------------------


  energy-cutoff  :      600.00
  volume of cell :     2419.21
      direct lattice vectors                 reciprocal lattice vectors
    10.930248344 -0.001061631 -0.002426736     0.091489230 -0.000004028  0.000001633
     0.001476682 32.619001368 -2.266254357     0.000003425  0.030792722  0.001953818
    -0.000140721 -0.432442104  6.815408342     0.000033715  0.010239171  0.147376034

  length of vectors
    10.930248665 32.697632349  6.829113929     0.091489230  0.030854646  0.147731301


 
 k-points in units of 2pi/SCALE and weight: read from INCAR                         
   0.00000000  0.00000000  0.00000000       0.125
   0.04574461 -0.00000201  0.00000082       0.125
   0.00000843  0.00255979  0.03684401       0.250
   0.04575304  0.00255778  0.03684483       0.250
   0.00001686  0.00511959  0.07368802       0.125
   0.04576147  0.00511757  0.07368883       0.125
 
 k-points in reciprocal lattice and weights: read from INCAR                         
   0.00000000  0.00000000  0.00000000       0.125
   0.50000000 -0.00000000  0.00000000       0.125
  -0.00000000  0.00000000  0.25000000       0.250
   0.50000000  0.00000000  0.25000000       0.250
  -0.00000000  0.00000000  0.50000000       0.125
   0.50000000  0.00000000  0.50000000       0.125
 
 position of ions in fractional coordinates (direct lattice) 
   0.90912988  0.95760902  0.13644905
   0.81815932  0.95192712  0.42317665
   0.90975028  0.79817306  0.90877148
   0.59056934  0.45759833  0.63594693
   0.68113856  0.30376601  0.12168370
   0.17965671  0.80376973  0.12212774
   0.68164327  0.45192066  0.92266957
   0.58987918  0.29813196  0.40821394
   0.32048533  0.45212312  0.42268356
   0.08861717  0.79815989  0.40884909
   0.17928280  0.95215680  0.92325069
   0.32001926  0.30376475  0.62181657
   0.81865014  0.80377388  0.62201694
   0.08842398  0.95767283  0.63619166
   0.41125205  0.29817574  0.90847993
   0.41132139  0.45767266  0.13572188
   0.73252507  0.03212606  0.13232231
   0.85703607  0.04999014  0.44055041
   0.85807311  0.70574662  0.60479198
   0.64277608  0.54996187  0.94028399
   0.64159985  0.20569993  0.10447415
   0.26527470  0.72364200  0.41344343
   0.76719574  0.53215053  0.63200485
   0.76621408  0.22355125  0.41264331
   0.23478900  0.53221654  0.13129968
   0.14081904  0.70567912  0.10519459
   0.14085939  0.05020093  0.94016839
   0.35890767  0.20567163  0.60513282
   0.73347766  0.72354956  0.91295657
   0.26498033  0.03221552  0.63170622
   0.23452897  0.22367174  0.91331584
   0.35890696  0.55016867  0.43985695
   0.70956537  0.07677885  0.12890218
   0.83150566  0.09429562  0.43177713
   0.83266439  0.66142882  0.61354190
   0.66828103  0.59427341  0.93165664
   0.66704484  0.16138585  0.11332521
   0.28870953  0.67901096  0.41673915
   0.79016460  0.57680666  0.62878735
   0.78900877  0.17890043  0.41621434
   0.21110577  0.57683752  0.12827417
   0.16703335  0.66139459  0.11365382
   0.16714057  0.09447819  0.93169969
   0.33273582  0.16139169  0.61374778
   0.71071604  0.67888933  0.91637618
   0.28868528  0.07683472  0.62859261
   0.21113859  0.17903846  0.91677673
   0.33267565  0.59444899  0.43146449
   0.63959287  0.08946044  0.97786215
   0.88015257  0.12405751  0.57499987
   0.88141670  0.63167709  0.47040380
   0.61964635  0.62401723  0.07494709
   0.61831502  0.13161261  0.97021327
   0.35871765  0.66637908  0.56786176
   0.86013538  0.58951891  0.47787805
   0.85885337  0.16621117  0.56738222
   0.14091874  0.58945938  0.97732217
   0.11882824  0.63158661  0.97019687
   0.11913561  0.12429663  0.07525222
   0.38090274  0.13156747  0.47036781
   0.64089917  0.66617510  0.06744945
   0.35883736  0.08944257  0.47764052
   0.14116206  0.16642176  0.06792815
   0.38072314  0.62425105  0.57509527
   0.83767715  0.97921346  0.28506790
   0.83832947  0.77651468  0.76018661
   0.66207815  0.47920602  0.78456495
   0.66133337  0.27648538  0.25971355
   0.16002275  0.77650480  0.26032693
   0.34003930  0.47936022  0.28432391
   0.15969663  0.97938071  0.78483452
   0.33973919  0.27651262  0.76004327
   0.75990428  0.10646254  0.27661302
   0.76108244  0.64923438  0.76861865
   0.73985822  0.60646756  0.77659229
   0.73865960  0.14922314  0.26849941
   0.23887782  0.64929111  0.26870065
   0.26086302  0.60655460  0.27638649
   0.23895355  0.10656628  0.77663022
   0.26094112  0.14930235  0.76883323
   0.03971489  0.87793257  0.02278185
   0.95843709  0.87786359  0.52265060
   0.46006514  0.37787494  0.52218797
   0.54134980  0.37787855  0.02213422
   0.43582788  0.14163953  0.35239005
   0.89743196  0.56600779  0.36562114
   0.89611063  0.18973167  0.67963361
   0.60230609  0.06593136  0.86566036
   0.60366853  0.68968122  0.17975749
   0.56497789  0.61384060  0.19296250
   0.06383849  0.64167236  0.85227595
   0.06431781  0.11421545  0.19334158
   0.93618668  0.64184056  0.35247422
   0.10435853  0.18997696  0.18043341
   0.10407075  0.56590175  0.86484076
   0.39553518  0.68992753  0.68044072
   0.43552668  0.61415405  0.69318956
   0.56354739  0.14175471  0.85217773
   0.93488056  0.11390315  0.69304537
   0.39567394  0.06587654  0.36523073
   0.72978439  0.45649759  0.06299610
   0.27183495  0.29915837  0.48153380
   0.44684530  0.46795390  0.00237740
   0.05301114  0.78784253  0.54202975
   0.22728862  0.95682925  0.06369871
   0.44692514  0.28786415  0.04165635
   0.94463244  0.96797451  0.00328706
   0.77056699  0.79916005  0.48164758
   0.05288154  0.96794121  0.50281032
   0.55499655  0.46796288  0.50280933
   0.72927073  0.29916272  0.98140253
   0.77005100  0.95649836  0.56349031
   0.55413363  0.28778530  0.54125367
   0.27249262  0.45678553  0.56309856
   0.22774797  0.79915357  0.98179709
   0.94540604  0.78784271  0.04192477
   0.93238029  0.91983643  0.18395531
   0.87585577  0.91601072  0.35993973
   0.93279785  0.83594982  0.86121396
   0.56735612  0.41982187  0.68344370
   0.62362992  0.33971936  0.18487734
   0.12208250  0.83971730  0.18526231
   0.62394352  0.41600137  0.85942737
   0.56692643  0.33592080  0.36071965
   0.37797237  0.41616105  0.35959633
   0.06552651  0.83593296  0.36125301
   0.12180483  0.91618774  0.86017593
   0.37765464  0.33971080  0.68482857
   0.87617573  0.83972657  0.68524380
   0.06535956  0.91990934  0.68396519
   0.43432073  0.33594058  0.86077419
   0.43440381  0.41990463  0.18343618
   0.80306882  0.02140000  0.29211523
   0.80396688  0.73430859  0.75319591
   0.69667014  0.52139684  0.79170717
   0.69570363  0.23428212  0.25280476
   0.19465975  0.73432113  0.25356997
   0.30534717  0.52153758  0.29117025
   0.19440718  0.02155482  0.79156824
   0.30508110  0.23433097  0.75339083
   0.69359690  0.00560580  0.00345203
   0.92230555  0.03853938  0.56953007
   0.92330877  0.71723451  0.47589232
   0.57758133  0.53848797  0.06926723
   0.57632973  0.21716427  0.97550723
   0.30395109  0.75019028  0.54240987
   0.80612269  0.50564416  0.50310015
   0.80528898  0.25007428  0.54137927
   0.19629214  0.50567679  0.00213899
   0.07523669  0.71706065  0.97640503
   0.07544302  0.03881756  0.06910917
   0.42445976  0.21703858  0.47631984
   0.69440217  0.75004903  0.04176341
   0.30345506  0.00566614  0.50260634
   0.19585586  0.25023353  0.04217493
   0.42430641  0.53877141  0.56882417
 
 position of ions in cartesian coordinates  (Angst):
   9.93841029 31.17627837 -1.24243582
   8.94403074 30.86704418  0.72482720
   9.94484726 25.64165116  4.38257783
   6.45565578 14.65076341  3.29577066
   7.44544505  9.85519966  0.13926014
   1.96486217 26.16516211 -0.98963220
   7.45106774 14.34147581  5.26254855
   6.44790877  9.54761164  2.10507039
   3.50359237 14.56467817  1.85535734
   0.96972880 25.85828090  0.97742515
   1.96088160 30.65896129  4.13406585
   3.49825109  9.63926354  3.54874906
   8.94914874 25.94844578  2.41575673
   0.96782071 30.96312130  2.16536115
   4.49539949  9.33289316  5.51492166
   4.49650173 14.86969649 -0.11320077
   8.00670980  0.98992072  0.82724712
   9.36762890  1.43920597  2.88716076
   9.37990928 22.75830145  2.52042064
   7.02638203 17.53190614  5.16050605
   7.01313470  6.66386598  0.24430865
   2.90052875 23.42540757  1.17718519
   8.38633682 17.08409899  3.09952086
   8.37518226  7.11276077  2.30384929
   2.56706946 17.30334337 -0.31184692
   1.54021433 22.97290825 -0.88264601
   1.53956992  1.23078641  6.29352154
   3.92316851  6.44673714  3.65725204
   8.01803297 23.20588440  4.58064457
   2.89625945  0.77738046  4.23168421
   2.56366170  6.90074374  5.71715417
   3.92369277 17.75535884  1.75011160
   7.75582092  2.44795354  0.70279864
   9.08864186  2.88822755  2.72702177
   9.10211897 21.30894227  2.68055195
   7.30522404 18.98100821  5.00122396
   7.29118810  5.21453049  0.40499746
   3.15661096 21.96813750  1.30073532
   8.63745862 18.54210438  2.97633440
   8.62426746  5.65472700  2.42932207
   2.30827222 18.76016848 -0.43353196
   1.82667669 21.52470486 -0.72469650
   1.82689639  2.67870052  6.13539662
   3.63703715  4.99867202  3.81637969
   7.76917632 21.74765782  4.70521721
   3.15542680  2.23413538  4.10928777
   2.30793255  5.44337863  5.84194873
   3.63704454 19.20339572  1.59262677
   6.99090341  2.49456254  6.46023759
   9.62038841  3.79704351  3.63557715
   9.63497002 20.40031776  1.77231408
   6.77379946 20.32175069 -0.90489042
   6.75839458  3.87285442  6.31263146
   3.92177716 21.49067182  2.35915477
   9.40229655 19.02195048  1.91884691
   9.38764627  5.17537048  3.48818052
   1.54100969 18.80479160  5.32464280
   1.29961826 20.18204433  5.18066359
   1.30235475  4.02176336  0.23089774
   4.16348967  4.08778837  2.90665901
   7.00616137 21.70011816 -1.05158201
   3.92224631  2.71059434  3.05174476
   1.54317254  5.39898677  0.08546149
   4.16223933 20.11334642  2.50387350
   9.15742521 31.81680068 -0.27832545
   9.16418900 24.99950685  3.41916800
   7.23727584 15.29124007  4.25952106
   7.22890969  8.90566368  1.14186284
   1.75019836 25.21606478  0.01408861
   3.71738186 15.51293705  0.85060616
   1.74685961 31.60685563  3.12905437
   3.71373507  8.69053017  4.55253284
   8.30606073  3.35227587  1.64211543
   8.31967068 20.84418607  3.76527277
   8.08762036 19.44574961  3.91658837
   8.07391539  4.75061530  1.48996299
   2.61191492 21.06277644  0.35926617
   2.85215439 19.66540723  0.50844673
   2.61186968  3.13998437  5.05096590
   2.85226354  4.53734067  4.90092210
   0.43538687 28.62738981 -1.83444728
  10.47717822 28.40800005  1.57028920
   5.02911077 12.09959865  2.70144706
   5.91764267 12.31587459 -0.70682891
   4.76386653  4.46728896  2.07963324
   9.80993852 18.30354606  1.20696194
   9.79489629  5.89400406  4.19982576
   6.58333067  1.77562779  5.74894998
   6.59924012 22.41833694 -0.33933732
   6.17622793 19.93882243 -0.07737174
   0.69859817 20.56208396  4.35426090
   0.70315104  3.64191655  1.05870448
  10.23365108 20.78277958  0.94540988
   1.14091978  6.11872096  0.79893800
   1.13823314 18.08504599  4.61151305
   4.32422080 22.21007591  3.07297023
   4.76122415 19.73286498  3.33148371
   6.15980231  4.25478121  5.48531940
  10.21854735  3.41471259  4.46298496
   4.32486036  1.99046586  2.33894339
   7.97738985 14.86247843 -0.60696652
   2.97159752  9.54972323  2.60322084
   4.88482079 15.26268654 -1.04538403
   0.58051199 25.46418365  1.90857388
   2.48572505 31.18302717 -1.73483728
   4.88542195  9.37135260 -0.36955290
  10.32649613 31.57193767 -2.17356620
   8.42360092 25.85870004  1.46965504
   0.57936693 31.35578327  1.23312830
   6.06687039 15.04645656  2.36498116
   7.97141385  9.33321503  6.00891046
   8.41818186 30.95552683  1.67087929
   6.05716702  9.15261986  3.03532536
   2.97900727 14.65609104  2.80189316
   2.49038382 25.64277933  4.87971011
  10.33468025 25.67950864 -1.50201182
  10.19248054 29.92360583 -0.83311541
   9.57462306 29.72277191  0.37509752
  10.19682538 26.89443288  3.97278620
   6.20186702 13.39801800  3.70514793
   6.81690559 11.00069532  0.48861069
   1.33560596 27.31049507 -0.64067097
   6.82035094 13.19723431  4.91306938
   6.19709201 10.80080882  1.69579398
   4.13189578 13.41885213  1.50675181
   0.71740461 27.11100790  0.56749107
   1.33258894 29.51302353  3.78584015
   4.12826429 10.78447739  3.89659878
   9.57796190 27.09378377  2.76505607
   0.71565844 29.71067913  2.57659491
   4.74760838 10.58535000  5.10414680
   4.74873575 13.61708297  0.29752762
   8.77773213  0.57087126  1.94043787
   8.78853604 23.62584570  3.46725663
   7.61543613 16.66433707  4.21249919
   7.60452383  7.53198680  1.19033651
   2.12872808 23.84296095  0.06355206
   3.33824960 16.88579672  0.80176636
   2.12483919  0.36058279  5.34554031
   3.33485219  7.31752049  4.60287223
   7.58119417  0.18062650  0.00913962
  10.08100545  1.00984804  3.79200174
  10.09298635 23.18869746  1.61572401
   6.31389282 17.53437244 -0.74966785
   6.29961044  6.66121927  6.15493207
   3.32329235 24.23557424  1.99588513
   8.81179711 16.27519015  2.28095840
   8.80230158  7.92220311  3.12103465
   2.14626830 16.49353857 -1.13189047
   0.82327716 22.96748365  5.02937462
   0.82465852  1.23622432  0.38285367
   4.63970404  6.87315052  2.75341951
   7.59108989 24.44705297 -1.41685233
   3.31677686 -0.03284633  3.41189009
   2.14111677  8.14392173 -0.28012873
   4.63848996 17.32775150  2.65474625
 


--------------------------------------------------------------------------------------------------------


 k-point  1 :   0.0000 0.0000 0.0000  plane waves:   80785
 k-point  2 :   0.5000-0.0000 0.0000  plane waves:   80830
 k-point  3 :  -0.0000 0.0000 0.2500  plane waves:   80748
 k-point  4 :   0.5000 0.0000 0.2500  plane waves:   80733
 k-point  5 :  -0.0000 0.0000 0.5000  plane waves:   80640
 k-point  6 :   0.5000 0.0000 0.5000  plane waves:   80780

 maximum and minimum number of plane-waves per node :     20271    20120

 maximum number of plane-waves:     80830
 maximum index in each direction: 
   IXMAX=   21   IYMAX=   65   IZMAX=   13
   IXMIN=  -22   IYMIN=  -65   IZMIN=  -14


 real space projection operators:
  total allocation   :      12102.33 KBytes
  max/ min on nodes  :       3083.70       2967.33


 parallel 3D FFT for wavefunctions:
    minimum data exchange during FFTs selected (reduces bandwidth)
 parallel 3D FFT for charge:
    minimum data exchange during FFTs selected (reduces bandwidth)


 total amount of memory used by VASP MPI-rank0   107851. kBytes
=======================================================================

   base      :      30000. kBytes
   nonlr-proj:       6196. kBytes
   fftplans  :       7785. kBytes
   grid      :      14036. kBytes
   one-center:        606. kBytes
   wavefun   :      49228. kBytes
 
     INWAV:  cpu time    0.0003: real time    0.0003
 Broyden mixing: mesh for mixing (old mesh)
   NGX = 43   NGY =131   NGZ = 27
  (NGX  =140   NGY  =392   NGZ  = 84)
  gives a total of 152091 points

 initial charge density was supplied:
 charge density of overlapping atoms calculated
 number of electron     616.0000000 magnetization 
 keeping initial charge density in first step


--------------------------------------------------------------------------------------------------------


 Maximum index for non-local projection operator          650
 Maximum index for augmentation-charges          644 (set IRDMAX)


--------------------------------------------------------------------------------------------------------


 First call to EWALD:  gamma=   0.132
 Maximum number of real-space cells 3x 1x 5
 Maximum number of reciprocal cells 2x 6x 2

    FEWALD:  cpu time    0.0142: real time    0.0143


--------------------------------------- Iteration      1(   1)  ---------------------------------------


    POTLOK:  cpu time    0.1268: real time    0.1542
    SETDIJ:  cpu time    0.0313: real time    0.0316
    EDDIAG:  cpu time    3.8164: real time    3.8810
  RMM-DIIS:  cpu time    4.9011: real time    4.9064
    ORTHCH:  cpu time    0.8571: real time    0.8581
       DOS:  cpu time    0.0041: real time    0.0048
    --------------------------------------------
      LOOP:  cpu time    9.7369: real time    9.8361

 eigenvalue-minimisations  :  2400
 total energy-change (2. order) : 0.6853554E+04  (-0.2528963E+05)
 number of electron     616.0000000 magnetization 
 augmentation part      616.0000000 magnetization 

 Free energy of the ion-electron system (eV)
  ---------------------------------------------------
  alpha Z        PSCENC =       798.56790057
  Ewald energy   TEWEN  =      2474.39606875
  -Hartree energ DENC   =    -31004.63285644
  -exchange      EXHF   =         0.00000000
  -V(xc)+E(xc)   XCENC  =      2272.50189975
  PAW double counting   =     25034.14638475   -25847.60581054
  entropy T*S    EENTRO =        -0.07025668
  eigenvalues    EBANDS =       692.57123408
  atomic energy  EATOM  =     32433.67991533
  Solvation  Ediel_sol  =         0.00000000
  ---------------------------------------------------
  free energy    TOTEN  =      6853.55447957 eV

  energy without entropy =     6853.62473626  energy(sigma->0) =     6853.58960792


--------------------------------------------------------------------------------------------------------




--------------------------------------- Iteration      1(   2)  ---------------------------------------


    EDDIAG:  cpu time    3.6588: real time    3.6644
  RMM-DIIS:  cpu time    4.8445: real time    4.8504
    ORTHCH:  cpu time    0.8512: real time    0.8522
       DOS:  cpu time    0.0033: real time    0.0033
    --------------------------------------------
      LOOP:  cpu time    9.3578: real time    9.3702

 eigenvalue-minimisations  :  2400
 total energy-change (2. order) :-0.4395227E+04  (-0.6714437E+04)
 number of electron     616.0000000 magnetization 
 augmentation part      616.0000000 magnetization 

 Free energy of the ion-electron system (eV)
  ---------------------------------------------------
  alpha Z        PSCENC =       798.56790057
  Ewald energy   TEWEN  =      2474.39606875
  -Hartree energ DENC   =    -31004.63285644
  -exchange      EXHF   =         0.00000000
  -V(xc)+E(xc)   XCENC  =      2272.50189975
  PAW double counting   =     25034.14638475   -25847.60581054
  entropy T*S    EENTRO =        -0.03432613
  eigenvalues    EBANDS =     -3702.69134101
  atomic energy  EATOM  =     32433.67991533
  Solvation  Ediel_sol  =         0.00000000
  ---------------------------------------------------
  free energy    TOTEN  =      2458.32783504 eV

  energy without entropy =     2458.36216117  energy(sigma->0) =     2458.34499810


--------------------------------------------------------------------------------------------------------




--------------------------------------- Iteration      1(   3)  ---------------------------------------


    EDDIAG:  cpu time    3.6612: real time    3.6650
  RMM-DIIS:  cpu time    4.8298: real time    4.8346
    ORTHCH:  cpu time    0.8516: real time    0.8524
       DOS:  cpu time    0.0029: real time    0.0029
    --------------------------------------------
      LOOP:  cpu time    9.3455: real time    9.3549

 eigenvalue-minimisations  :  2400
 total energy-change (2. order) :-0.2117723E+04  (-0.2600203E+04)
 number of electron     616.0000000 magnetization 
 augmentation part      616.0000000 magnetization 

 Free energy of the ion-electron system (eV)
  ---------------------------------------------------
  alpha Z        PSCENC =       798.56790057
  Ewald energy   TEWEN  =      2474.39606875
  -Hartree energ DENC   =    -31004.63285644
  -exchange      EXHF   =         0.00000000
  -V(xc)+E(xc)   XCENC  =      2272.50189975
  PAW double counting   =     25034.14638475   -25847.60581054
  entropy T*S    EENTRO =        -0.04000847
  eigenvalues    EBANDS =     -5820.40849760
  atomic energy  EATOM  =     32433.67991533
  Solvation  Ediel_sol  =         0.00000000
  ---------------------------------------------------
  free energy    TOTEN  =       340.60499610 eV

  energy without entropy =      340.64500457  energy(sigma->0) =      340.62500034


--------------------------------------------------------------------------------------------------------




--------------------------------------- Iteration      1(   4)  ---------------------------------------


    EDDIAG:  cpu time    3.6511: real time    3.6551
  RMM-DIIS:  cpu time    4.8270: real time    4.8330
    ORTHCH:  cpu time    0.8523: real time    0.8531
       DOS:  cpu time    0.0025: real time    0.0025
    --------------------------------------------
      LOOP:  cpu time    9.3330: real time    9.3438

 eigenvalue-minimisations  :  2400
 total energy-change (2. order) :-0.1031725E+04  (-0.9996264E+03)
 number of electron     616.0000000 magnetization 
 augmentation part      616.0000000 magnetization 

 Free energy of the ion-electron system (eV)
  ---------------------------------------------------
  alpha Z        PSCENC =       798.56790057
  Ewald energy   TEWEN  =      2474.39606875
  -Hartree energ DENC   =    -31004.63285644
  -exchange      EXHF   =         0.00000000
  -V(xc)+E(xc)   XCENC  =      2272.50189975
  PAW double counting   =     25034.14638475   -25847.60581054
  entropy T*S    EENTRO =        -0.00042316
  eigenvalues    EBANDS =     -6852.17327687
  atomic energy  EATOM  =     32433.67991533
  Solvation  Ediel_sol  =         0.00000000
  ---------------------------------------------------
  free energy    TOTEN  =      -691.12019785 eV

  energy without entropy =     -691.11977469  energy(sigma->0) =     -691.11998627


--------------------------------------------------------------------------------------------------------




--------------------------------------- Iteration      1(   5)  ---------------------------------------


    EDDIAG:  cpu time    3.6581: real time    3.6620
  RMM-DIIS:  cpu time    4.8291: real time    4.8341
    ORTHCH:  cpu time    0.8517: real time    0.8528
       DOS:  cpu time    0.0027: real time    0.0027
    --------------------------------------------
      LOOP:  cpu time    9.3417: real time    9.3515

 eigenvalue-minimisations  :  2400
 total energy-change (2. order) :-0.3619675E+03  (-0.3241127E+03)
 number of electron     616.0000000 magnetization 
 augmentation part      616.0000000 magnetization 

 Free energy of the ion-electron system (eV)
  ---------------------------------------------------
  alpha Z        PSCENC =       798.56790057
  Ewald energy   TEWEN  =      2474.39606875
  -Hartree energ DENC   =    -31004.63285644
  -exchange      EXHF   =         0.00000000
  -V(xc)+E(xc)   XCENC  =      2272.50189975
  PAW double counting   =     25034.14638475   -25847.60581054
  entropy T*S    EENTRO =        -0.00409854
  eigenvalues    EBANDS =     -7214.13706898
  atomic energy  EATOM  =     32433.67991533
  Solvation  Ediel_sol  =         0.00000000
  ---------------------------------------------------
  free energy    TOTEN  =     -1053.08766534 eV

  energy without entropy =    -1053.08356680  energy(sigma->0) =    -1053.08561607


--------------------------------------------------------------------------------------------------------




--------------------------------------- Iteration      1(   6)  ---------------------------------------


    EDDIAG:  cpu time    3.6527: real time    3.6570
  RMM-DIIS:  cpu time    4.8282: real time    4.8340
    ORTHCH:  cpu time    0.8495: real time    0.8505
       DOS:  cpu time    0.0013: real time    0.0013
    --------------------------------------------
      LOOP:  cpu time    9.3317: real time    9.3428

 eigenvalue-minimisations  :  2400
 total energy-change (2. order) :-0.1200774E+03  (-0.1055557E+03)
 number of electron     616.0000000 magnetization 
 augmentation part      616.0000000 magnetization 

 Free energy of the ion-electron system (eV)
  ---------------------------------------------------
  alpha Z        PSCENC =       798.56790057
  Ewald energy   TEWEN  =      2474.39606875
  -Hartree energ DENC   =    -31004.63285644
  -exchange      EXHF   =         0.00000000
  -V(xc)+E(xc)   XCENC  =      2272.50189975
  PAW double counting   =     25034.14638475   -25847.60581054
  entropy T*S    EENTRO =        -0.00000000
  eigenvalues    EBANDS =     -7334.21854296
  atomic energy  EATOM  =     32433.67991533
  Solvation  Ediel_sol  =         0.00000000
  ---------------------------------------------------
  free energy    TOTEN  =     -1173.16504078 eV

  energy without entropy =    -1173.16504078  energy(sigma->0) =    -1173.16504078


--------------------------------------------------------------------------------------------------------




--------------------------------------- Iteration      1(   7)  ---------------------------------------


    EDDIAG:  cpu time    3.6548: real time    3.6587
  RMM-DIIS:  cpu time    4.8491: real time    4.8542
    ORTHCH:  cpu time    0.8525: real time    0.8535
       DOS:  cpu time    0.0013: real time    0.0013
    --------------------------------------------
      LOOP:  cpu time    9.3577: real time    9.3677

 eigenvalue-minimisations  :  2400
 total energy-change (2. order) :-0.4063095E+02  (-0.3711343E+02)
 number of electron     616.0000000 magnetization 
 augmentation part      616.0000000 magnetization 

 Free energy of the ion-electron system (eV)
  ---------------------------------------------------
  alpha Z        PSCENC =       798.56790057
  Ewald energy   TEWEN  =      2474.39606875
  -Hartree energ DENC   =    -31004.63285644
  -exchange      EXHF   =         0.00000000
  -V(xc)+E(xc)   XCENC  =      2272.50189975
  PAW double counting   =     25034.14638475   -25847.60581054
  entropy T*S    EENTRO =        -0.00000000
  eigenvalues    EBANDS =     -7374.84949400
  atomic energy  EATOM  =     32433.67991533
  Solvation  Ediel_sol  =         0.00000000
  ---------------------------------------------------
  free energy    TOTEN  =     -1213.79599182 eV

  energy without entropy =    -1213.79599182  energy(sigma->0) =    -1213.79599182


--------------------------------------------------------------------------------------------------------




--------------------------------------- Iteration      1(   8)  ---------------------------------------


    EDDIAG:  cpu time    3.6486: real time    3.6526
  RMM-DIIS:  cpu time    4.8260: real time    4.8321
    ORTHCH:  cpu time    0.8517: real time    0.8527
       DOS:  cpu time    0.0014: real time    0.0014
    --------------------------------------------
      LOOP:  cpu time    9.3277: real time    9.3387

 eigenvalue-minimisations  :  2400
 total energy-change (2. order) :-0.1491357E+02  (-0.1339153E+02)
 number of electron     616.0000000 magnetization 
 augmentation part      616.0000000 magnetization 

 Free energy of the ion-electron system (eV)
  ---------------------------------------------------
  alpha Z        PSCENC =       798.56790057
  Ewald energy   TEWEN  =      2474.39606875
  -Hartree energ DENC   =    -31004.63285644
  -exchange      EXHF   =         0.00000000
  -V(xc)+E(xc)   XCENC  =      2272.50189975
  PAW double counting   =     25034.14638475   -25847.60581054
  entropy T*S    EENTRO =        -0.00000000
  eigenvalues    EBANDS =     -7389.76306495
  atomic energy  EATOM  =     32433.67991533
  Solvation  Ediel_sol  =         0.00000000
  ---------------------------------------------------
  free energy    TOTEN  =     -1228.70956277 eV

  energy without entropy =    -1228.70956277  energy(sigma->0) =    -1228.70956277


--------------------------------------------------------------------------------------------------------




--------------------------------------- Iteration      1(   9)  ---------------------------------------


[...]
   -.955E+02 -.199E+02 -.782E+02   0.823E+02 0.353E+02 0.910E+02   0.132E+02 -.154E+02 -.128E+02   0.425E-04 0.104E-03 0.561E-04
   0.313E+03 0.848E+02 -.511E+02   -.317E+03 -.105E+03 0.638E+02   0.342E+01 0.205E+02 -.127E+02   -.137E-03 -.169E-03 0.217E-04
   -.961E+02 -.202E+02 -.782E+02   0.830E+02 0.356E+02 0.911E+02   0.132E+02 -.154E+02 -.129E+02   0.409E-04 0.988E-04 0.550E-04
   -.313E+03 0.848E+02 -.511E+02   0.317E+03 -.105E+03 0.638E+02   -.343E+01 0.205E+02 -.127E+02   0.136E-03 -.173E-03 0.220E-04
   0.314E+03 -.856E+02 0.509E+02   -.318E+03 0.106E+03 -.635E+02   0.347E+01 -.205E+02 0.127E+02   -.138E-03 0.170E-03 -.233E-04
   0.314E+03 -.851E+02 0.504E+02   -.318E+03 0.106E+03 -.630E+02   0.348E+01 -.205E+02 0.127E+02   -.140E-03 0.169E-03 -.194E-04
   -.958E+02 0.200E+02 0.782E+02   0.827E+02 -.354E+02 -.910E+02   0.132E+02 0.154E+02 0.129E+02   0.424E-04 -.104E-03 -.542E-04
   0.958E+02 -.202E+02 -.780E+02   -.827E+02 0.355E+02 0.908E+02   -.132E+02 -.154E+02 -.128E+02   -.420E-04 0.105E-03 0.551E-04
   0.958E+02 0.199E+02 0.783E+02   -.827E+02 -.353E+02 -.911E+02   -.132E+02 0.154E+02 0.129E+02   -.409E-04 -.104E-03 -.550E-04
   0.154E+03 0.652E+02 -.267E+02   -.156E+03 -.652E+02 0.281E+02   0.250E+01 0.120E-02 -.141E+01   0.179E-04 0.275E-03 -.155E-05
   0.154E+03 -.649E+02 0.269E+02   -.157E+03 0.649E+02 -.283E+02   0.249E+01 0.179E-01 0.140E+01   0.203E-04 -.270E-03 -.205E-05
   -.154E+03 0.652E+02 -.266E+02   0.156E+03 -.652E+02 0.280E+02   -.249E+01 0.211E-04 -.140E+01   -.238E-04 0.273E-03 0.111E-04
   -.154E+03 -.649E+02 0.269E+02   0.157E+03 0.649E+02 -.283E+02   -.250E+01 0.132E-01 0.140E+01   -.208E-04 -.274E-03 -.140E-05
   -.154E+03 -.651E+02 0.268E+02   0.157E+03 0.651E+02 -.282E+02   -.248E+01 0.692E-03 0.139E+01   -.250E-04 -.273E-03 -.252E-05
   0.153E+03 0.649E+02 -.264E+02   -.155E+03 -.650E+02 0.278E+02   0.245E+01 0.330E-02 -.138E+01   0.229E-04 0.277E-03 0.593E-05
   -.153E+03 0.650E+02 -.264E+02   0.155E+03 -.650E+02 0.278E+02   -.245E+01 -.557E-03 -.137E+01   -.234E-04 0.274E-03 0.656E-05
   0.154E+03 -.652E+02 0.269E+02   -.157E+03 0.652E+02 -.283E+02   0.249E+01 -.236E-02 0.140E+01   0.224E-04 -.274E-03 0.341E-06
   0.307E+03 0.294E+03 0.228E+03   -.326E+03 -.331E+03 -.265E+03   0.190E+02 0.364E+02 0.366E+02   0.222E-03 0.269E-03 0.105E-03
   -.648E+02 0.586E+02 -.206E+03   0.960E+02 -.776E+02 0.246E+03   -.312E+02 0.191E+02 -.398E+02   -.768E-04 0.339E-03 -.777E-04
   -.643E+02 -.588E+02 0.205E+03   0.955E+02 0.779E+02 -.245E+03   -.312E+02 -.191E+02 0.398E+02   -.691E-04 -.333E-03 0.696E-04
   0.646E+02 0.587E+02 -.206E+03   -.957E+02 -.778E+02 0.246E+03   0.312E+02 0.191E+02 -.399E+02   0.721E-04 0.335E-03 -.755E-04
   0.642E+02 -.587E+02 0.205E+03   -.954E+02 0.778E+02 -.245E+03   0.312E+02 -.191E+02 0.398E+02   0.763E-04 -.341E-03 0.800E-04
   -.307E+03 -.294E+03 -.228E+03   0.326E+03 0.330E+03 0.265E+03   -.188E+02 -.364E+02 -.366E+02   -.229E-03 -.275E-03 -.113E-03
   -.307E+03 0.294E+03 0.228E+03   0.326E+03 -.330E+03 -.265E+03   -.190E+02 0.364E+02 0.366E+02   -.227E-03 0.282E-03 0.118E-03
   -.308E+03 -.294E+03 -.228E+03   0.327E+03 0.330E+03 0.265E+03   -.190E+02 -.364E+02 -.366E+02   -.228E-03 -.273E-03 -.110E-03
   0.306E+03 0.294E+03 0.229E+03   -.325E+03 -.330E+03 -.265E+03   0.188E+02 0.364E+02 0.367E+02   0.223E-03 0.280E-03 0.115E-03
   0.650E+02 -.583E+02 0.205E+03   -.964E+02 0.773E+02 -.245E+03   0.314E+02 -.190E+02 0.397E+02   0.790E-04 -.339E-03 0.889E-04
   0.658E+02 0.581E+02 -.206E+03   -.971E+02 -.771E+02 0.246E+03   0.313E+02 0.190E+02 -.398E+02   0.741E-04 0.337E-03 -.814E-04
   -.651E+02 -.583E+02 0.205E+03   0.965E+02 0.772E+02 -.245E+03   -.314E+02 -.190E+02 0.398E+02   -.735E-04 -.341E-03 0.787E-04
   0.308E+03 -.294E+03 -.228E+03   -.327E+03 0.330E+03 0.265E+03   0.190E+02 -.364E+02 -.366E+02   0.220E-03 -.259E-03 -.942E-04
   -.306E+03 0.294E+03 0.229E+03   0.324E+03 -.330E+03 -.265E+03   -.187E+02 0.365E+02 0.367E+02   -.223E-03 0.274E-03 0.113E-03
   0.307E+03 -.294E+03 -.228E+03   -.326E+03 0.331E+03 0.265E+03   0.188E+02 -.365E+02 -.366E+02   0.223E-03 -.268E-03 -.104E-03
   -.656E+02 0.582E+02 -.206E+03   0.969E+02 -.772E+02 0.246E+03   -.313E+02 0.190E+02 -.398E+02   -.785E-04 0.343E-03 -.873E-04
 -----------------------------------------------------------------------------------------------
   -.228E-02 -.759E-01 -.525E-01   -.696E-12 -.469E-12 -.199E-12   -.132E-02 0.113E+00 0.773E-03   -.649E-04 0.553E-04 0.100E-03
 
 
 POSITION                                       TOTAL-FORCE (eV/Angst)
 -----------------------------------------------------------------------------------
      9.93841     31.17628     -1.24244         0.003302     -0.000939     -0.004132
      8.94403     30.86704      0.72483         0.001957     -0.001156     -0.002923
      9.94485     25.64165      4.38258         0.000488     -0.004821      0.004042
      6.45566     14.65076      3.29577        -0.002267     -0.001753     -0.004181
      7.44545      9.85520      0.13926         0.000604      0.000782      0.004122
      1.96486     26.16516     -0.98963         0.001962      0.000115      0.000875
      7.45107     14.34148      5.26255        -0.002133     -0.000289     -0.003849
      6.44791      9.54761      2.10507         0.000775     -0.004127      0.003630
      3.50359     14.56468      1.85536         0.002313     -0.001276     -0.004354
      0.96973     25.85828      0.97743        -0.001626      0.001592      0.004539
      1.96088     30.65896      4.13407        -0.001643     -0.000950     -0.002768
      3.49825      9.63926      3.54875        -0.001402     -0.000197      0.001816
      8.94915     25.94845      2.41576        -0.001934      0.000974      0.003612
      0.96782     30.96312      2.16536        -0.000805      0.000337     -0.002135
      4.49540      9.33289      5.51492        -0.000938     -0.003189      0.001504
      4.49650     14.86970     -0.11320         0.002140     -0.000392     -0.004478
      8.00671      0.98992      0.82725         0.005473      0.001554      0.002052
      9.36763      1.43921      2.88716        -0.000786      0.002852     -0.004440
      9.37991     22.75830      2.52042        -0.001173     -0.001579      0.005059
      7.02638     17.53191      5.16051        -0.000496      0.000843     -0.001901
      7.01313      6.66387      0.24431        -0.001078     -0.002815     -0.000666
      2.90053     23.42541      1.17719        -0.002895      0.003370      0.001016
      8.38634     17.08410      3.09952        -0.003053     -0.004194      0.000765
      8.37518      7.11276      2.30385        -0.000215      0.003816      0.000730
      2.56707     17.30334     -0.31185         0.001910     -0.002079     -0.002103
      1.54021     22.97291     -0.88265         0.001123     -0.001854      0.000854
      1.53957      1.23079      6.29352         0.001636      0.002598     -0.001351
      3.92317      6.44674      3.65725        -0.001367     -0.001175      0.002791
      8.01803     23.20588      4.58064         0.001622     -0.000096     -0.000236
      2.89626      0.77738      4.23168        -0.001743     -0.000638     -0.000838
      2.56366      6.90074      5.71715         0.003612     -0.000652     -0.000652
      3.92369     17.75536      1.75011        -0.001650      0.001069     -0.000428
      7.75582      2.44795      0.70280        -0.001974      0.002394     -0.004190
      9.08864      2.88823      2.72702        -0.003276     -0.000691     -0.005616
      9.10212     21.30894      2.68055         0.001059      0.003085      0.000367
      7.30522     18.98101      5.00122         0.002091      0.001379     -0.002372
      7.29119      5.21453      0.40500         0.000016      0.004768      0.002209
      3.15661     21.96814      1.30074        -0.000173      0.000269      0.002787
      8.63746     18.54210      2.97633         0.001241      0.003644     -0.002768
      8.62427      5.65473      2.42932         0.000196     -0.003045      0.004200
      2.30827     18.76017     -0.43353        -0.003155      0.004671     -0.004181
      1.82668     21.52470     -0.72470        -0.001757      0.007026      0.000539
      1.82690      2.67870      6.13540         0.003963     -0.001796     -0.004012
      3.63704      4.99867      3.81638         0.000262      0.002546     -0.000525
      7.76918     21.74766      4.70522         0.001669      0.000769      0.000856
      3.15543      2.23414      4.10929         0.000891      0.004340     -0.000286
      2.30793      5.44338      5.84195        -0.000955      0.001813      0.003059
      3.63704     19.20340      1.59263        -0.004535     -0.001439     -0.003813
      6.99090      2.49456      6.46024         0.003965     -0.004009     -0.001001
      9.62039      3.79704      3.63558        -0.001133      0.004532      0.000103
      9.63497     20.40032      1.77231        -0.000819      0.001441      0.000169
      6.77380     20.32175     -0.90489         0.000897      0.000560     -0.001066
      6.75839      3.87285      6.31263        -0.002159      0.002502     -0.001280
      3.92178     21.49067      2.35915         0.000140      0.004484      0.003134
      9.40230     19.02195      1.91885        -0.002112     -0.005294     -0.004439
      9.38765      5.17537      3.48818        -0.001347     -0.000657      0.000737
      1.54101     18.80479      5.32464         0.003231     -0.001100      0.000292
      1.29962     20.18204      5.18066        -0.001800     -0.004679     -0.002664
      1.30235      4.02176      0.23090         0.001553      0.001518     -0.000968
      4.16349      4.08779      2.90666         0.000467     -0.003848     -0.000190
      7.00616     21.70012     -1.05158         0.001573      0.000891      0.002384
      3.92225      2.71059      3.05174        -0.001315      0.000619     -0.002881
      1.54317      5.39899      0.08546         0.000409      0.002909      0.001814
      4.16224     20.11335      2.50387        -0.002158      0.002654     -0.001996
      9.15743     31.81680     -0.27833         0.001542     -0.003844      0.002236
      9.16419     24.99951      3.41917         0.001778     -0.000604      0.005084
      7.23728     15.29124      4.25952        -0.001563     -0.004175      0.000468
      7.22891      8.90566      1.14186        -0.001930     -0.000033      0.004912
      1.75020     25.21606      0.01409         0.001775      0.002972     -0.001285
      3.71738     15.51294      0.85061        -0.001075     -0.003458      0.003025
      1.74686     31.60686      3.12905         0.000148     -0.004074     -0.001559
      3.71374      8.69053      4.55253         0.000235     -0.001179      0.003439
      8.30606      3.35228      1.64212         0.001502      0.000648      0.003636
      8.31967     20.84419      3.76527        -0.002421      0.000495      0.001220
      8.08762     19.44575      3.91659        -0.001921      0.000094      0.001111
      8.07392      4.75062      1.48996         0.000371      0.000908     -0.001836
      2.61191     21.06278      0.35927        -0.000722      0.000472     -0.000116
      2.85215     19.66541      0.50845         0.001808     -0.001263      0.001625
      2.61187      3.13998      5.05097        -0.001202     -0.000268     -0.000058
      2.85226      4.53734      4.90092        -0.000544     -0.000778      0.000106
      0.43539     28.62739     -1.83445         0.005082      0.003916     -0.001201
     10.47718     28.40800      1.57029        -0.004372      0.004971     -0.000861
      5.02911     12.09960      2.70145        -0.003916      0.006737     -0.003067
      5.91764     12.31587     -0.70683         0.004708      0.006863     -0.003088
      4.76387      4.46729      2.07963         0.000334      0.000450     -0.002012
      9.80994     18.30355      1.20696        -0.001808      0.000176     -0.001039
      9.79490      5.89400      4.19983         0.000223      0.003286      0.003963
      6.58333      1.77563      5.74895         0.000860     -0.001077     -0.002249
      6.59924     22.41834     -0.33934        -0.001084      0.003194      0.004140
      6.17623     19.93882     -0.07737        -0.000574      0.001129      0.002948
      0.69860     20.56208      4.35426         0.001496      0.000044     -0.000513
      0.70315      3.64192      1.05870        -0.000242      0.000581      0.001298
     10.23365     20.78278      0.94541        -0.000101     -0.000343     -0.001812
      1.14092      6.11872      0.79894        -0.000304      0.002158      0.001647
      1.13823     18.08505      4.61151        -0.000071     -0.000768     -0.003714
      4.32422     22.21008      3.07297        -0.000377      0.000428      0.000227
      4.76122     19.73286      3.33148         0.001428      0.000051      0.002520
      6.15980      4.25478      5.48532         0.000954     -0.001277      0.000117
     10.21855      3.41471      4.46298        -0.000575      0.001182      0.002603
      4.32486      1.99047      2.33894         0.000469     -0.001072     -0.004635
      7.97739     14.86248     -0.60697        -0.000156      0.000662     -0.001329
      2.97160      9.54972      2.60322        -0.001579     -0.002100      0.001220
      4.88482     15.26269     -1.04538         0.000647      0.000103      0.001951
      0.58051     25.46418      1.90857        -0.000991     -0.001787      0.001913
      2.48573     31.18303     -1.73484         0.000208     -0.001718     -0.002220
      4.88542      9.37135     -0.36955         0.000971     -0.001455      0.001695
     10.32650     31.57194     -2.17357         0.003129     -0.001714      0.001315
      8.42360     25.85870      1.46966        -0.001272     -0.000689      0.000974
      0.57937     31.35578      1.23313         0.000001      0.000480      0.001309
      6.06687     15.04646      2.36498        -0.002119     -0.001299      0.000295
      7.97141      9.33322      6.00891         0.002469     -0.000548     -0.000272
      8.41818     30.95553      1.67088        -0.000330      0.000821     -0.000442
      6.05717      9.15262      3.03533        -0.000211     -0.000673      0.000269
      2.97901     14.65609      2.80189        -0.001161     -0.001994     -0.000942
      2.49038     25.64278      4.87971         0.001006      0.000171      0.001581
     10.33468     25.67951     -1.50201         0.001098     -0.001138      0.001084
     10.19248     29.92361     -0.83312         0.001452      0.000031      0.003103
      9.57462     29.72277      0.37510         0.002863     -0.001376      0.000506
     10.19683     26.89443      3.97279        -0.002127     -0.003747      0.001559
      6.20187     13.39802      3.70515        -0.001676      0.000615      0.002101
      6.81691     11.00070      0.48861         0.000370      0.001880     -0.001687
      1.33561     27.31050     -0.64067         0.000610     -0.001342     -0.000844
      6.82035     13.19723      4.91307        -0.003518     -0.002421     -0.000039
      6.19709     10.80081      1.69579         0.001371     -0.005188      0.000899
      4.13190     13.41885      1.50675        -0.000049      0.000056     -0.001369
      0.71740     27.11101      0.56749        -0.001114     -0.000775      0.000396
      1.33259     29.51302      3.78584         0.000722     -0.000550     -0.001082
      4.12826     10.78448      3.89660         0.000518      0.001879     -0.001953
      9.57796     27.09378      2.76506        -0.002625      0.000351     -0.000930
      0.71566     29.71068      2.57659        -0.000740     -0.001374      0.002007
      4.74761     10.58535      5.10415        -0.000377     -0.005267      0.001618
      4.74874     13.61708      0.29753         0.002353     -0.003098      0.002057
      8.77773      0.57087      1.94044        -0.001536     -0.000540     -0.004828
      8.78854     23.62585      3.46726        -0.002865     -0.001643      0.002168
      7.61544     16.66434      4.21250        -0.001127     -0.000925     -0.002128
      7.60452      7.53199      1.19034         0.003435     -0.001130      0.003420
      2.12873     23.84296      0.06355         0.004138     -0.001573      0.000979
      3.33825     16.88580      0.80177        -0.001197     -0.003617     -0.003123
      2.12484      0.36058      5.34554         0.001606     -0.002250     -0.002392
      3.33485      7.31752      4.60287        -0.003514     -0.001647      0.002244
      7.58119      0.18063      0.00914        -0.000733     -0.000781     -0.003114
     10.08101      1.00985      3.79200         0.002786      0.000078      0.003162
     10.09299     23.18870      1.61572        -0.000760     -0.000083      0.001262
      6.31389     17.53437     -0.74967         0.001497      0.001943     -0.001783
      6.29961      6.66122      6.15493         0.001190      0.000650      0.002966
      3.32329     24.23557      1.99589        -0.001735     -0.000686      0.000626
      8.81180     16.27519      2.28096         0.000362      0.001708     -0.001608
      8.80230      7.92220      3.12103        -0.000233      0.000940     -0.000249
      2.14627     16.49354     -1.13189         0.003610      0.000446     -0.005814
      0.82328     22.96748      5.02937         0.001619      0.000686      0.001993
      0.82466      1.23622      0.38285         0.000549      0.002685     -0.000342
      4.63970      6.87315      2.75342        -0.001243      0.001204      0.000277
      7.59109     24.44705     -1.41685         0.000008      0.001270      0.000926
      3.31678     -0.03285      3.41189        -0.004303     -0.000110     -0.005014
      2.14112      8.14392     -0.28013         0.001637      0.000483      0.002919
      4.63849     17.32775      2.65475         0.000489      0.001572      0.001057
 -----------------------------------------------------------------------------------
    total drift:                               -0.003661      0.036955     -0.051612


--------------------------------------------------------------------------------------------------------



  FREE ENERGIE OF THE ION-ELECTRON SYSTEM (eV)
  ---------------------------------------------------
  free  energy   TOTEN  =     -1162.52969863 eV

  energy  without entropy=    -1162.52969863  energy(sigma->0) =    -1162.52969863
 


--------------------------------------------------------------------------------------------------------


    POTLOK:  cpu time    0.1465: real time    0.1473


--------------------------------------------------------------------------------------------------------




--------------------------------------------------------------------------------------------------------


  
 reached required accuracy - stopping structural energy minimisation
 writing wavefunctions
     LOOP+:  cpu time  444.3708: real time  454.5656
    4ORBIT:  cpu time    0.0000: real time    0.0000

 total amount of memory used by VASP MPI-rank0   107851. kBytes
=======================================================================

   base      :      30000. kBytes
   nonlr-proj:       6196. kBytes
   fftplans  :       7785. kBytes
   grid      :      14036. kBytes
   one-center:        606. kBytes
   wavefun   :      49228. kBytes
 
  
  
 General timing and accounting informations for this job:
 ========================================================
  
                  Total CPU time used (sec):      517.539
                            User time (sec):      470.537
                          System time (sec):       47.002
                         Elapsed time (sec):      529.442
  
                   Maximum memory used (kb):     1000344.
                   Average memory used (kb):           0.
  
                          Minor page faults:       361920
                          Major page faults:           12
                 Voluntary context switches:        11594
