       N       E                     dE             d eps       ncg     rms          rms(c)
DAV:   1     0.514993148710E+04    0.51499E+04   -0.28752E+05  9216   0.149E+03
DAV:   2    -0.461608097087E+03   -0.56115E+04   -0.54020E+04 12576   0.333E+02
DAV:   3    -0.126689514143E+04   -0.80529E+03   -0.79812E+03 10912   0.135E+02
DAV:   4    -0.129488771280E+04   -0.27993E+02   -0.27791E+02 12288   0.327E+01
DAV:   5    -0.129573126244E+04   -0.84355E+00   -0.84197E+00 13088   0.513E+00    0.847E+01
DAV:   6    -0.149106972651E+04   -0.19534E+03   -0.23333E+03 14624   0.911E+01    0.213E+02
DAV:   7    -0.140132323716E+04    0.89746E+02   -0.19326E+02 10816   0.330E+01    0.139E+02
DAV:   8    -0.115694457374E+04    0.24438E+03   -0.23814E+02 13088   0.103E+02    0.308E+01
DAV:   9    -0.117192621257E+04   -0.14982E+02   -0.13599E+02 12704   0.200E+01    0.394E+01
DAV:  10    -0.116752670973E+04    0.43995E+01   -0.14835E+02 13312   0.199E+01    0.249E+01
DAV:  11    -0.118343469856E+04   -0.15908E+02   -0.11026E+02 12960   0.293E+01    0.552E+01
DAV:  12    -0.116675296216E+04    0.16682E+02   -0.48618E+01 12352   0.286E+01    0.152E+01
DAV:  13    -0.116860701369E+04   -0.18541E+01   -0.15509E+01 13184   0.121E+01    0.255E+01
DAV:  14    -0.116759818636E+04    0.10088E+01   -0.77310E+00 13184   0.821E+00    0.102E+01
DAV:  15    -0.116783600997E+04   -0.23782E+00   -0.11501E+00 13120   0.370E+00    0.846E+00
DAV:  16    -0.116783611185E+04   -0.10188E-03   -0.55857E-01 13664   0.371E+00    0.638E+00
DAV:  17    -0.116774847825E+04    0.87634E-01   -0.12548E-01 13536   0.241E+00    0.481E+00
DAV:  18    -0.116756485716E+04    0.18362E+00   -0.24432E-01 13600   0.395E+00    0.274E+00
DAV:  19    -0.116750469065E+04    0.60167E-01   -0.30330E-01 13536   0.333E+00    0.154E+00
DAV:  20    -0.116749443091E+04    0.10260E-01   -0.22446E-01 13184   0.182E+00    0.107E+00
DAV:  21    -0.116750038503E+04   -0.59541E-02   -0.63642E-02 13280   0.132E+00    0.739E-01
DAV:  22    -0.116753541001E+04   -0.35025E-01   -0.63079E-02 13152   0.114E+00    0.480E-01
DAV:  23    -0.116760522373E+04   -0.69814E-01   -0.58059E-02 12160   0.642E-01    0.419E-01
DAV:  24    -0.116767838683E+04   -0.73163E-01   -0.13269E-02 11680   0.323E-01    0.359E-01
DAV:  25    -0.116775450044E+04   -0.76114E-01   -0.69813E-03 11424   0.215E-01    0.402E-01
DAV:  26    -0.116783369347E+04   -0.79193E-01   -0.51047E-03 11776   0.177E-01    0.274E-01
DAV:  27    -0.116789702687E+04   -0.63333E-01   -0.29045E-03 11360   0.181E-01    0.202E-01
DAV:  28    -0.116796888688E+04   -0.71860E-01   -0.30338E-03 11296   0.107E-01    0.134E-01
DAV:  29    -0.116805056661E+04   -0.81680E-01   -0.35989E-03 11424   0.154E-01    0.120E-01
DAV:  30    -0.116809137139E+04   -0.40805E-01   -0.16862E-03 11552   0.110E-01    0.544E-02
DAV:  31    -0.116810782561E+04   -0.16454E-01   -0.83014E-04 11168   0.563E-02    0.573E-02
DAV:  32    -0.116811235851E+04   -0.45329E-02   -0.24811E-04 11680   0.276E-02    0.447E-02
DAV:  33    -0.116811484143E+04   -0.24829E-02   -0.85015E-05 11328   0.223E-02    0.341E-02
DAV:  34    -0.116811691775E+04   -0.20763E-02   -0.10250E-04 11104   0.216E-02    0.177E-02
DAV:  35    -0.116811765937E+04   -0.74162E-03   -0.32104E-05 11392   0.134E-02    0.993E-03
DAV:  36    -0.116811805108E+04   -0.39172E-03   -0.26398E-05 10496   0.994E-03    0.885E-03
DAV:  37    -0.116811821293E+04   -0.16185E-03   -0.14470E-05 10048   0.637E-03    0.420E-03
DAV:  38    -0.116811826794E+04   -0.55007E-04   -0.28671E-06  9056   0.410E-03    0.265E-03
DAV:  39    -0.116811832350E+04   -0.55563E-04   -0.45952E-06  9696   0.303E-03    0.172E-03
DAV:  40    -0.116811835126E+04   -0.27761E-04   -0.16875E-06  8480   0.174E-03    0.184E-03
DAV:  41    -0.116811836483E+04   -0.13568E-04   -0.60503E-07  7488   0.160E-03    0.115E-03
DAV:  42    -0.116811837275E+04   -0.79171E-05   -0.50346E-07  7392   0.109E-03    0.988E-04
DAV:  43    -0.116811837705E+04   -0.42975E-05   -0.20275E-07  7200   0.851E-04    0.694E-04
DAV:  44    -0.116811837961E+04   -0.25575E-05   -0.13293E-07  6880   0.633E-04    0.463E-04
DAV:  45    -0.116811838155E+04   -0.19413E-05   -0.11046E-07  6816   0.485E-04    0.416E-04
DAV:  46    -0.116811838239E+04   -0.84781E-06   -0.53052E-08  6496   0.432E-04
   1 F= -.11792692E+04 E0= -.11792663E+04  d E =-.117927E+04  mag=     0.0004
