 vasp.5.4.4.18Apr17-6-g9f103f2a35 (build May 22 2020 17:00:04) complex          
  
 executed on           IFC15_impi date 2020.09.22  10:48:08
 running on  128 total cores
 distrk:  each k-point on  128 cores,    1 groups
 distr:  one band on NCORES_PER_BAND=   4 cores,   32 groups


--------------------------------------------------------------------------------------------------------


 INCAR:
 POTCAR:    PAW_PBE C 08Apr2002                   
 POTCAR:    PAW_PBE Co 02Aug2007                  
 POTCAR:    PAW_PBE H 15Jun2001                   
 POTCAR:    PAW_PBE N 08Apr2002                   
 POTCAR:    PAW_PBE O 08Apr2002                   

 ----------------------------------------------------------------------------- 
|                                                                             |
|           W    W    AA    RRRRR   N    N  II  N    N   GGGG   !!!           |
|           W    W   A  A   R    R  NN   N  II  NN   N  G    G  !!!           |
|           W    W  A    A  R    R  N N  N  II  N N  N  G       !!!           |
|           W WW W  AAAAAA  RRRRR   N  N N  II  N  N N  G  GGG   !            |
|           WW  WW  A    A  R   R   N   NN  II  N   NN  G    G                |
|           W    W  A    A  R    R  N    N  II  N    N   GGGG   !!!           |
|                                                                             |
|      For optimal performance we recommend to set                            |
|        NCORE= 4 - approx SQRT( number of cores)                             |
|      NCORE specifies how many cores store one orbital (NPAR=cpu/NCORE).     |
|      This setting can  greatly improve the performance of VASP for DFT.     |
|      The default,   NCORE=1            might be grossly inefficient         |
|      on modern multi-core architectures or massively parallel machines.     |
|      Do your own testing !!!!                                               |
|      Unfortunately you need to use the default for GW and RPA calculations. |
|      (for HF NCORE is supported but not extensively tested yet)             |
|                                                                             |
 ----------------------------------------------------------------------------- 

 POTCAR:    PAW_PBE C 08Apr2002                   
   VRHFIN =C: s2p2                                                              
   LEXCH  = PE                                                                  
   EATOM  =   147.1560 eV,   10.8157 Ry                                         
                                                                                
   TITEL  = PAW_PBE C 08Apr2002                                                 
   LULTRA =        F    use ultrasoft PP ?                                      
   IUNSCR =        1    unscreen: 0-lin 1-nonlin 2-no                           
   RPACOR =    1.200    partial core radius                                     
   POMASS =   12.011; ZVAL   =    4.000    mass and valenz                      
   RCORE  =    1.500    outmost cutoff radius                                   
   RWIGS  =    1.630; RWIGS  =    0.863    wigner-seitz radius (au A)           
   ENMAX  =  400.000; ENMIN  =  300.000 eV                                      
   ICORE  =        2    local potential                                         
   LCOR   =        T    correct aug charges                                     
   LPAW   =        T    paw PP                                                  
   EAUG   =  644.873                                                            
   DEXC   =    0.000                                                            
   RMAX   =    1.529    core radius for proj-oper                               
   RAUG   =    1.300    factor for augmentation sphere                          
   RDEP   =    1.501    radius for radial grids                                 
   RDEPT  =    1.300    core radius for aug-charge                              
                                                                                
   Atomic configuration                                                         
    4 entries                                                                   
     n  l   j            E        occ.                                          
     1  0  0.50      -273.3789   2.0000                                         
     2  0  0.50       -13.7508   2.0000                                         
     2  1  0.50        -5.2854   2.0000                                         
     3  2  1.50        -5.4423   0.0000                                         
   Description                                                                  
     l       E           TYP  RCUT    TYP  RCUT                                 
     0    -13.7508458     23  1.200                                             
     0     -8.2022199     23  1.200                                             
     1     -5.2854383     23  1.500                                             
     1     34.0145650     23  1.500                                             
     2     -5.4423304      7  1.500                                             
  local pseudopotential read in
  partial core-charges read in
  partial kinetic energy density read in
  atomic valenz-charges read in
  non local Contribution for L=           0  read in
    real space projection operators read in
  non local Contribution for L=           0  read in
    real space projection operators read in
  non local Contribution for L=           1  read in
    real space projection operators read in
  non local Contribution for L=           1  read in
    real space projection operators read in
    PAW grid and wavefunctions read in
 
   number of l-projection  operators is LMAX  =           4
   number of lm-projection operators is LMMAX =           8
 
 POTCAR:    PAW_PBE Co 02Aug2007                  
   VRHFIN =Co: d8 s1                                                            
   LEXCH  = PE                                                                  
   EATOM  =   813.3670 eV,   59.7808 Ry                                         
                                                                                
   TITEL  = PAW_PBE Co 02Aug2007                                                
   LULTRA =        F    use ultrasoft PP ?                                      
   IUNSCR =        1    unscreen: 0-lin 1-nonlin 2-no                           
   RPACOR =    2.000    partial core radius                                     
   POMASS =   58.933; ZVAL   =    9.000    mass and valenz                      
   RCORE  =    2.300    outmost cutoff radius                                   
   RWIGS  =    2.460; RWIGS  =    1.302    wigner-seitz radius (au A)           
   ENMAX  =  267.968; ENMIN  =  200.976 eV                                      
   RCLOC  =    1.203    cutoff for local pot                                    
   LCOR   =        T    correct aug charges                                     
   LPAW   =        T    paw PP                                                  
   EAUG   =  477.818                                                            
   DEXC   =    0.000                                                            
   RMAX   =    2.360    core radius for proj-oper                               
   RAUG   =    1.300    factor for augmentation sphere                          
   RDEP   =    2.393    radius for radial grids                                 
   RDEPT  =    1.864    core radius for aug-charge                              
                                                                                
   Atomic configuration                                                         
    9 entries                                                                   
     n  l   j            E        occ.                                          
     1  0  0.50     -7587.6674   2.0000                                         
     2  0  0.50      -893.6084   2.0000                                         
     2  1  1.50      -764.5805   6.0000                                         
     3  0  0.50       -97.5973   2.0000                                         
     3  1  1.50       -60.9648   6.0000                                         
     3  2  2.50        -4.2382   8.0000                                         
     4  0  0.50        -4.3746   1.0000                                         
     4  1  1.50        -4.0817   0.0000                                         
     4  3  2.50        -1.3606   0.0000                                         
   Description                                                                  
     l       E           TYP  RCUT    TYP  RCUT                                 
     2     -4.2382362     23  2.300                                             
     2     -5.5988188     23  2.300                                             
     0     -4.3745797     23  2.300                                             
     0      5.7660125     23  2.300                                             
     1     -2.7211652     23  2.300                                             
     1     16.9860234     23  2.300                                             
  local pseudopotential read in
  partial core-charges read in
  partial kinetic energy density read in
  atomic valenz-charges read in
  non local Contribution for L=           2  read in
    real space projection operators read in
  non local Contribution for L=           2  read in
    real space projection operators read in
  non local Contribution for L=           0  read in
    real space projection operators read in
  non local Contribution for L=           0  read in
    real space projection operators read in
  non local Contribution for L=           1  read in
    real space projection operators read in
  non local Contribution for L=           1  read in
    real space projection operators read in
    PAW grid and wavefunctions read in
 
   number of l-projection  operators is LMAX  =           6
   number of lm-projection operators is LMMAX =          18
 
 POTCAR:    PAW_PBE H 15Jun2001                   
   VRHFIN =H: ultrasoft test                                                    
   LEXCH  = PE                                                                  
   EATOM  =    12.4884 eV,    0.9179 Ry                                         
                                                                                
   TITEL  = PAW_PBE H 15Jun2001                                                 
   LULTRA =        F    use ultrasoft PP ?                                      
   IUNSCR =        0    unscreen: 0-lin 1-nonlin 2-no                           
   RPACOR =    0.000    partial core radius                                     
   POMASS =    1.000; ZVAL   =    1.000    mass and valenz                      
   RCORE  =    1.100    outmost cutoff radius                                   
   RWIGS  =    0.700; RWIGS  =    0.370    wigner-seitz radius (au A)           
   ENMAX  =  250.000; ENMIN  =  200.000 eV                                      
   RCLOC  =    0.701    cutoff for local pot                                    
   LCOR   =        T    correct aug charges                                     
   LPAW   =        T    paw PP                                                  
   EAUG   =  400.000                                                            
   RMAX   =    1.123    core radius for proj-oper                               
   RAUG   =    1.200    factor for augmentation sphere                          
   RDEP   =    1.112    radius for radial grids                                 
   RDEPT  =    0.926    core radius for aug-charge                              
                                                                                
   Atomic configuration                                                         
    2 entries                                                                   
     n  l   j            E        occ.                                          
     1  0  0.50        -6.4927   1.0000                                         
     2  1  0.50        -3.4015   0.0000                                         
   Description                                                                  
     l       E           TYP  RCUT    TYP  RCUT                                 
     0     -6.4927494     23  1.100                                             
     0      6.8029130     23  1.100                                             
     1     -4.0817478     23  1.100                                             
  local pseudopotential read in
  atomic valenz-charges read in
  non local Contribution for L=           0  read in
    real space projection operators read in
  non local Contribution for L=           0  read in
    real space projection operators read in
  non local Contribution for L=           1  read in
    real space projection operators read in
    PAW grid and wavefunctions read in
 
   number of l-projection  operators is LMAX  =           3
   number of lm-projection operators is LMMAX =           5
 
 POTCAR:    PAW_PBE N 08Apr2002                   
   VRHFIN =N: s2p3                                                              
   LEXCH  = PE                                                                  
   EATOM  =   264.5486 eV,   19.4438 Ry                                         
                                                                                
   TITEL  = PAW_PBE N 08Apr2002                                                 
   LULTRA =        F    use ultrasoft PP ?                                      
   IUNSCR =        1    unscreen: 0-lin 1-nonlin 2-no                           
   RPACOR =    1.200    partial core radius                                     
   POMASS =   14.001; ZVAL   =    5.000    mass and valenz                      
   RCORE  =    1.500    outmost cutoff radius                                   
   RWIGS  =    1.400; RWIGS  =    0.741    wigner-seitz radius (au A)           
   ENMAX  =  400.000; ENMIN  =  300.000 eV                                      
   ICORE  =        2    local potential                                         
   LCOR   =        T    correct aug charges                                     
   LPAW   =        T    paw PP                                                  
   EAUG   =  627.112                                                            
   DEXC   =    0.000                                                            
   RMAX   =    1.529    core radius for proj-oper                               
   RAUG   =    1.300    factor for augmentation sphere                          
   RDEP   =    1.514    radius for radial grids                                 
   RDEPT  =    1.338    core radius for aug-charge                              
                                                                                
   Atomic configuration                                                         
    4 entries                                                                   
     n  l   j            E        occ.                                          
     1  0  0.50      -384.7179   2.0000                                         
     2  0  0.50       -18.5828   2.0000                                         
     2  1  0.50        -7.0898   3.0000                                         
     3  2  1.50        -6.8029   0.0000                                         
   Description                                                                  
     l       E           TYP  RCUT    TYP  RCUT                                 
     0    -18.5828119     23  1.200                                             
     0    -13.5018863     23  1.200                                             
     1     -7.0897853     23  1.500                                             
     1      9.5240782     23  1.500                                             
     2     -6.8029130      7  1.500                                             
  local pseudopotential read in
  partial core-charges read in
  partial kinetic energy density read in
  atomic valenz-charges read in
  non local Contribution for L=           0  read in
    real space projection operators read in
  non local Contribution for L=           0  read in
    real space projection operators read in
  non local Contribution for L=           1  read in
    real space projection operators read in
  non local Contribution for L=           1  read in
    real space projection operators read in
    PAW grid and wavefunctions read in
 
   number of l-projection  operators is LMAX  =           4
   number of lm-projection operators is LMMAX =           8
 
 POTCAR:    PAW_PBE O 08Apr2002                   
   VRHFIN =O: s2p4                                                              
   LEXCH  = PE                                                                  
   EATOM  =   432.3788 eV,   31.7789 Ry                                         
                                                                                
   TITEL  = PAW_PBE O 08Apr2002                                                 
   LULTRA =        F    use ultrasoft PP ?                                      
   IUNSCR =        1    unscreen: 0-lin 1-nonlin 2-no                           
   RPACOR =    1.200    partial core radius                                     
   POMASS =   16.000; ZVAL   =    6.000    mass and valenz                      
   RCORE  =    1.520    outmost cutoff radius                                   
   RWIGS  =    1.550; RWIGS  =    0.820    wigner-seitz radius (au A)           
   ENMAX  =  400.000; ENMIN  =  300.000 eV                                      
   ICORE  =        2    local potential                                         
   LCOR   =        T    correct aug charges                                     
   LPAW   =        T    paw PP                                                  
   EAUG   =  605.392                                                            
   DEXC   =    0.000                                                            
   RMAX   =    1.553    core radius for proj-oper                               
   RAUG   =    1.300    factor for augmentation sphere                          
   RDEP   =    1.550    radius for radial grids                                 
   RDEPT  =    1.329    core radius for aug-charge                              
                                                                                
   Atomic configuration                                                         
    4 entries                                                                   
     n  l   j            E        occ.                                          
     1  0  0.50      -514.6923   2.0000                                         
     2  0  0.50       -23.9615   2.0000                                         
     2  1  0.50        -9.0305   4.0000                                         
     3  2  1.50        -9.5241   0.0000                                         
   Description                                                                  
     l       E           TYP  RCUT    TYP  RCUT                                 
     0    -23.9615318     23  1.200                                             
     0     -9.5240782     23  1.200                                             
     1     -9.0304911     23  1.520                                             
     1      8.1634956     23  1.520                                             
     2     -9.5240782      7  1.500                                             
  local pseudopotential read in
  partial core-charges read in
  partial kinetic energy density read in
  kinetic energy density of atom read in
  atomic valenz-charges read in
  non local Contribution for L=           0  read in
    real space projection operators read in
  non local Contribution for L=           0  read in
    real space projection operators read in
  non local Contribution for L=           1  read in
    real space projection operators read in
  non local Contribution for L=           1  read in
    real space projection operators read in
    PAW grid and wavefunctions read in
 
   number of l-projection  operators is LMAX  =           4
   number of lm-projection operators is LMMAX =           8
 
 Optimization of the real space projectors (new method)

 maximal supplied QI-value         = 25.13
 optimisation between [QCUT,QGAM] = [ 12.32, 24.88] = [ 42.47,173.37] Ry 
 Optimized for a Real-space Cutoff    1.06 Angstroem

   l    n(q)    QCUT    max X(q) W(low)/X(q) W(high)/X(q)  e(spline) 
   0      8    12.315   115.676    0.34E-03    0.18E-03    0.23E-06
   0      8    12.315    87.132    0.34E-03    0.18E-03    0.22E-06
   1      7    12.315     4.429    0.45E-03    0.12E-03    0.18E-06
   1      7    12.315     2.733    0.35E-03    0.97E-04    0.15E-06
 Optimization of the real space projectors (new method)

 maximal supplied QI-value         = 16.25
 optimisation between [QCUT,QGAM] = [ 12.51, 25.03] = [ 43.85,175.40] Ry 
 Optimized for a Real-space Cutoff    1.31 Angstroem

   l    n(q)    QCUT    max X(q) W(low)/X(q) W(high)/X(q)  e(spline) 
   2      9    12.514    65.824    0.30E-03    0.46E-03    0.43E-06
   2      9    12.514    61.429    0.31E-03    0.46E-03    0.44E-06
   0     10    12.514    56.174    0.90E-04    0.33E-03    0.30E-06
   0     10    12.514    31.263    0.81E-04    0.30E-03    0.28E-06
   1      9    12.514    19.828    0.38E-03    0.65E-04    0.24E-06
   1      9    12.514    15.139    0.32E-03    0.60E-04    0.20E-06
 Optimization of the real space projectors (new method)

 maximal supplied QI-value         = 34.20
 optimisation between [QCUT,QGAM] = [ 12.31, 24.97] = [ 42.46,174.58] Ry 
 Optimized for a Real-space Cutoff    1.00 Angstroem

   l    n(q)    QCUT    max X(q) W(low)/X(q) W(high)/X(q)  e(spline) 
   0      7    12.313    19.460    0.14E-03    0.42E-03    0.16E-06
   0      7    12.313    12.209    0.12E-03    0.40E-03    0.16E-06
   1      7    12.313     4.655    0.33E-03    0.59E-03    0.89E-07
 Optimization of the real space projectors (new method)

 maximal supplied QI-value         = 25.13
 optimisation between [QCUT,QGAM] = [ 12.32, 24.88] = [ 42.47,173.37] Ry 
 Optimized for a Real-space Cutoff    1.20 Angstroem

   l    n(q)    QCUT    max X(q) W(low)/X(q) W(high)/X(q)  e(spline) 
   0      9    12.315    79.467    0.14E-03    0.22E-04    0.37E-06
   0      9    12.315    66.151    0.14E-03    0.23E-04    0.36E-06
   1      8    12.315    22.077    0.30E-03    0.54E-03    0.45E-06
   1      8    12.315    15.894    0.30E-03    0.55E-03    0.45E-06
 Optimization of the real space projectors (new method)

 maximal supplied QI-value         = 24.76
 optimisation between [QCUT,QGAM] = [ 12.38, 25.00] = [ 42.90,175.06] Ry 
 Optimized for a Real-space Cutoff    1.13 Angstroem

   l    n(q)    QCUT    max X(q) W(low)/X(q) W(high)/X(q)  e(spline) 
   0      8    12.378    20.381    0.16E-03    0.54E-05    0.27E-06
   0      8    12.378    15.268    0.17E-03    0.61E-05    0.29E-06
   1      8    12.378     5.964    0.38E-03    0.23E-03    0.28E-06
   1      8    12.378     5.382    0.33E-03    0.20E-03    0.25E-06
  PAW_PBE C 08Apr2002                   :
 energy of atom  1       EATOM= -147.1560
 kinetic energy error for atom=    0.0057 (will be added to EATOM!!)
  PAW_PBE Co 02Aug2007                  :
 energy of atom  2       EATOM= -813.3670
 kinetic energy error for atom=    0.0018 (will be added to EATOM!!)
  PAW_PBE H 15Jun2001                   :
 energy of atom  3       EATOM=  -12.4884
 kinetic energy error for atom=    0.0004 (will be added to EATOM!!)
  PAW_PBE N 08Apr2002                   :
 energy of atom  4       EATOM= -264.5486
 kinetic energy error for atom=    0.0103 (will be added to EATOM!!)
  PAW_PBE O 08Apr2002                   :
 energy of atom  5       EATOM= -432.3788
 kinetic energy error for atom=    0.0168 (will be added to EATOM!!)
 
 
 POSCAR: CoH_5	                                  
  positions in direct lattice
  velocities in cartesian coordinates
 exchange correlation table for  LEXCH =        8
   RHO(1)=    0.500       N(1)  =     2000
   RHO(2)=  100.500       N(2)  =     4000
 


--------------------------------------------------------------------------------------------------------


 ion  position               nearest neighbor table
   1  0.855  0.963  0.134- 107 1.09 117 1.35  65 1.40
   2  0.934  0.974  0.425- 112 1.08 118 1.35  65 1.40
   3  0.856  0.816  0.921- 116 1.09 119 1.35  66 1.40
   4  0.644  0.463  0.631- 110 1.09 120 1.35  67 1.40
   5  0.565  0.306  0.128- 111 1.08 121 1.35  68 1.40
   6  0.066  0.806  0.130- 115 1.08 122 1.35  69 1.40
   7  0.566  0.474  0.922- 101 1.08 123 1.35  67 1.40
   8  0.644  0.317  0.419- 113 1.09 124 1.35  68 1.40
   9  0.435  0.474  0.422- 114 1.08 125 1.35  70 1.40
  10  0.144  0.817  0.421- 104 1.09 126 1.35  69 1.40
  11  0.065  0.974  0.925- 105 1.08 127 1.35  71 1.40
  12  0.434  0.306  0.628- 102 1.08 128 1.35  72 1.40
  13  0.935  0.806  0.631- 108 1.08 129 1.35  66 1.40
  14  0.144  0.964  0.634- 109 1.09 130 1.35  71 1.40
  15  0.356  0.317  0.919- 106 1.09 131 1.35  72 1.40
  16  0.356  0.464  0.131- 103 1.09 132 1.35  70 1.40
  17  0.781  0.040  0.453- 141 1.23 133 1.42  33 1.48
  18  0.858  0.068  0.098- 142 1.23 133 1.42  34 1.48
  19  0.859  0.712  0.957- 143 1.23 134 1.42  35 1.48
  20  0.642  0.568  0.596- 144 1.23 135 1.42  36 1.48
  21  0.641  0.212  0.455- 145 1.23 136 1.42  37 1.48
  22  0.219  0.740  0.101- 146 1.23 137 1.42  38 1.48
  23  0.718  0.541  0.952- 147 1.23 135 1.42  39 1.48
  24  0.717  0.239  0.100- 148 1.23 136 1.42  40 1.48
  25  0.283  0.541  0.451- 149 1.23 138 1.42  41 1.48
  26  0.142  0.712  0.457- 150 1.23 137 1.42  42 1.48
  27  0.141  0.068  0.598- 151 1.23 139 1.42  43 1.48
  28  0.358  0.212  0.956- 152 1.23 140 1.42  44 1.48
  29  0.783  0.739  0.601- 153 1.23 134 1.42  45 1.48
  30  0.217  0.041  0.954- 154 1.23 139 1.42  46 1.48
  31  0.282  0.240  0.600- 155 1.23 140 1.42  47 1.48
  32  0.359  0.568  0.096- 156 1.23 138 1.42  48 1.48
  33  0.745  0.085  0.449-  49 1.39  73 1.42  17 1.48
  34  0.821  0.111  0.103-  50 1.39  73 1.42  18 1.48
  35  0.823  0.668  0.951-  51 1.39  74 1.42  19 1.48
  36  0.678  0.612  0.602-  52 1.39  75 1.42  20 1.48
  37  0.677  0.168  0.450-  53 1.39  76 1.42  21 1.48
  38  0.254  0.696  0.104-  54 1.39  77 1.42  22 1.48
  39  0.754  0.585  0.949-  55 1.39  75 1.42  23 1.48
  40  0.753  0.195  0.104-  56 1.39  76 1.42  24 1.48
  41  0.247  0.585  0.449-  57 1.39  78 1.42  25 1.48
  42  0.179  0.669  0.451-  58 1.39  77 1.42  26 1.48
  43  0.177  0.112  0.603-  59 1.39  79 1.42  27 1.48
  44  0.322  0.169  0.951-  60 1.39  80 1.42  28 1.48
  45  0.747  0.695  0.604-  61 1.39  74 1.42  29 1.48
  46  0.253  0.085  0.950-  62 1.39  79 1.42  30 1.48
  47  0.246  0.195  0.604-  63 1.39  80 1.42  31 1.48
  48  0.323  0.612  0.102-  64 1.39  78 1.42  32 1.48
  49  0.691  0.092  0.617-  88 1.09  33 1.39  53 1.40
  50  0.842  0.146  0.935-  99 1.09  34 1.39  56 1.40
  51  0.843  0.634  0.118-  93 1.09  35 1.39  55 1.40
  52  0.658  0.646  0.435-  90 1.09  36 1.39  61 1.40
  53  0.657  0.134  0.617-  98 1.09  37 1.39  49 1.40
  54  0.309  0.688  0.936-  96 1.09  38 1.39  64 1.40
  55  0.808  0.592  0.117-  86 1.09  39 1.39  51 1.40
  56  0.807  0.187  0.936-  87 1.09  40 1.39  50 1.40
  57  0.193  0.593  0.617-  95 1.09  41 1.39  58 1.40
  58  0.159  0.634  0.618-  91 1.09  42 1.39  57 1.40
  59  0.157  0.146  0.436-  92 1.09  43 1.39  63 1.40
  60  0.342  0.134  0.118-  85 1.09  44 1.39  62 1.40
  61  0.692  0.687  0.436-  89 1.09  45 1.39  52 1.40
  62  0.307  0.093  0.118- 100 1.09  46 1.39  60 1.40
  63  0.191  0.188  0.436-  94 1.09  47 1.39  59 1.40
  64  0.343  0.646  0.935-  97 1.09  48 1.39  54 1.40
  65  0.871  0.993  0.277-   2 1.40   1 1.40 133 1.42
  66  0.872  0.787  0.779-  13 1.40   3 1.40 134 1.42
  67  0.628  0.493  0.774-   7 1.40   4 1.40 135 1.42
  68  0.628  0.287  0.277-   5 1.40   8 1.40 136 1.42
  69  0.129  0.787  0.279-   6 1.40  10 1.40 137 1.42
  70  0.372  0.493  0.273-   9 1.40  16 1.40 138 1.42
  71  0.128  0.993  0.776-  11 1.40  14 1.40 139 1.42
  72  0.371  0.287  0.777-  12 1.40  15 1.40 140 1.42
  73  0.766  0.119  0.276-  33 1.42  34 1.42  76 1.43
  74  0.768  0.661  0.777-  45 1.42  35 1.42  75 1.43
  75  0.733  0.619  0.776-  39 1.42  36 1.42  74 1.43
  76  0.732  0.161  0.277-  40 1.42  37 1.42  73 1.43
  77  0.234  0.661  0.277-  38 1.42  42 1.42  78 1.43
  78  0.268  0.619  0.276-  41 1.42  48 1.42  77 1.43
  79  0.232  0.119  0.776-  46 1.42  43 1.42  80 1.43
  80  0.267  0.161  0.777-  47 1.42  44 1.42  79 1.43
  81  0.968  0.890  0.028- 119 1.96 117 1.96 122 1.96 127 1.96
  82  0.032  0.890  0.528- 130 1.96 126 1.96 118 1.96 129 1.96
  83  0.532  0.390  0.525- 124 1.96 120 1.96 128 1.96 125 1.96
  84  0.468  0.390  0.025- 131 1.96 132 1.96 123 1.96 121 1.96
  85  0.384  0.141  0.249-  60 1.09
  86  0.823  0.565  0.248-  55 1.09
  87  0.822  0.214  0.805-  56 1.09
  88  0.676  0.066  0.748-  49 1.09
  89  0.677  0.714  0.305-  61 1.09
  90  0.616  0.639  0.303-  52 1.09
  91  0.116  0.641  0.750-  58 1.09
  92  0.114  0.139  0.304-  59 1.09
  93  0.885  0.640  0.250-  51 1.09
  94  0.176  0.214  0.305-  63 1.09
  95  0.178  0.566  0.747-  57 1.09
  96  0.324  0.715  0.805-  54 1.09
  97  0.386  0.640  0.803-  64 1.09
  98  0.614  0.141  0.749-  53 1.09
  99  0.884  0.139  0.804-  50 1.09
 100  0.323  0.066  0.249-  62 1.09
 101  0.536  0.486  0.058-   7 1.08
 102  0.464  0.294  0.492-  12 1.08
 103  0.315  0.467  0.987-  16 1.09
 104  0.186  0.814  0.565-  10 1.09
 105  0.035  0.986  0.060-  11 1.08
 106  0.314  0.314  0.062-  15 1.09
 107  0.814  0.966  0.991-   1 1.09
 108  0.964  0.794  0.495-  13 1.08
 109  0.185  0.966  0.491-  14 1.09
 110  0.686  0.466  0.488-   4 1.09
 111  0.536  0.294  0.992-   5 1.08
 112  0.964  0.986  0.561-   2 1.08
 113  0.685  0.314  0.563-   8 1.09
 114  0.464  0.486  0.558-   9 1.08
 115  0.037  0.794  0.994-   6 1.08
 116  0.815  0.814  0.065-   3 1.09
 117  0.906  0.928  0.197-   1 1.35 118 1.37  81 1.96
 118  0.954  0.935  0.374-   2 1.35 117 1.37  82 1.96
 119  0.907  0.852  0.859-   3 1.35 129 1.37  81 1.96
 120  0.594  0.428  0.694-   4 1.35 123 1.37  83 1.96
 121  0.545  0.345  0.179-   5 1.35 124 1.37  84 1.96
 122  0.046  0.845  0.181-   6 1.35 126 1.37  81 1.96
 123  0.546  0.435  0.871-   7 1.35 120 1.37  84 1.96
 124  0.593  0.352  0.356-   8 1.35 121 1.37  83 1.96
 125  0.455  0.435  0.371-   9 1.35 132 1.37  83 1.96
 126  0.094  0.852  0.359-  10 1.35 122 1.37  82 1.96
 127  0.045  0.935  0.874-  11 1.35 130 1.37  81 1.96
 128  0.454  0.345  0.678-  12 1.35 131 1.37  83 1.96
 129  0.955  0.845  0.681-  13 1.35 119 1.37  82 1.96
 130  0.093  0.928  0.697-  14 1.35 127 1.37  82 1.96
 131  0.406  0.352  0.856-  15 1.35 128 1.37  84 1.96
 132  0.407  0.428  0.194-  16 1.35 125 1.37  84 1.96
 133  0.834  0.035  0.273-  18 1.42  17 1.42  65 1.42
 134  0.835  0.745  0.782-  19 1.42  29 1.42  66 1.42
 135  0.666  0.535  0.771-  20 1.42  23 1.42  67 1.42
 136  0.665  0.245  0.281-  21 1.42  24 1.42  68 1.42
 137  0.166  0.746  0.282-  26 1.42  22 1.42  69 1.42
 138  0.335  0.535  0.270-  32 1.42  25 1.42  70 1.42
 139  0.165  0.035  0.773-  27 1.42  30 1.42  71 1.42
 140  0.334  0.245  0.780-  28 1.42  31 1.42  72 1.42
 141  0.767  0.010  0.603-  17 1.23
 142  0.906  0.060  0.952-  18 1.23
 143  0.907  0.719  0.104-  19 1.23
 144  0.593  0.560  0.449-  20 1.23
 145  0.592  0.220  0.602-  21 1.23
 146  0.233  0.770  0.952-  22 1.23
 147  0.733  0.510  0.101-  23 1.23
 148  0.732  0.269  0.950-  24 1.23
 149  0.268  0.511  0.601-  25 1.23
 150  0.094  0.720  0.604-  26 1.23
 151  0.092  0.060  0.451-  27 1.23
 152  0.406  0.220  0.102-  28 1.23
 153  0.768  0.770  0.451-  29 1.23
 154  0.232  0.011  0.104-  30 1.23
 155  0.267  0.270  0.449-  31 1.23
 156  0.408  0.561  0.949-  32 1.23
 

IMPORTANT INFORMATION: All symmetrisations will be switched off!
NOSYMM: (Re-)initialisation of all symmetry stuff for point group C_1.

 
 

Automatic generation of k-mesh.
 generate k-points for:    2    1    4
Space group operators:
 irot       det(A)        alpha          n_x          n_y          n_z        tau_x        tau_y        tau_z
    1     1.000000     0.000000     1.000000     0.000000     0.000000     0.000000     0.000000     0.000000
 
 Subroutine IBZKPT returns following result:
 ===========================================
 
 Found      6 irreducible k-points:
 
 Following reciprocal coordinates:
            Coordinates               Weight
  0.000000  0.000000  0.000000      1.000000
  0.500000 -0.000000  0.000000      1.000000
  0.000000 -0.000000  0.250000      2.000000
  0.500000  0.000000  0.250000      2.000000
  0.000000 -0.000000  0.500000      1.000000
  0.500000  0.000000  0.500000      1.000000
 
 Following cartesian coordinates:
            Coordinates               Weight
  0.000000  0.000000  0.000000      1.000000
  0.032352 -0.000003  0.000006      1.000000
  0.000006 -0.003312  0.040881      2.000000
  0.032359 -0.003315  0.040886      2.000000
  0.000013 -0.006625  0.081761      1.000000
  0.032365 -0.006628  0.081767      1.000000
 


--------------------------------------------------------------------------------------------------------




 Dimension of arrays:
   k-points           NKPTS =      6   k-points in BZ     NKDIM =      6   number of bands    NBANDS=    384
   number of dos      NEDOS =    301   number of ions     NIONS =    156
   non local maximal  LDIM  =      6   non local SUM 2l+1 LMDIM =     18
   total plane-waves  NPLWV = 737280
   max r-space proj   IRMAX =   2392   max aug-charges    IRDMAX=  10083
   dimension x,y,z NGX =    96 NGY =  192 NGZ =   40
   dimension x,y,z NGXF=   192 NGYF=  384 NGZF=   80
   support grid    NGXF=   192 NGYF=  384 NGZF=   80
   ions per type =              80   4  32  24  16
   NGX,Y,Z   is equivalent  to a cutoff of  10.33, 10.22, 10.76 a.u.
   NGXF,Y,Z  is equivalent  to a cutoff of  20.65, 20.44, 21.51 a.u.

 SYSTEM =  flex_MOF                                
 POSCAR =  CoH_5	                                  

 Startparameter for this run:
   NWRITE =      2    write-flag & timer
   PREC   = normal    normal or accurate (medium, high low for compatibility)
   ISTART =      0    job   : 0-new  1-cont  2-samecut
   ICHARG =      2    charge: 1-file 2-atom 10-const
   ISPIN  =      2    spin polarized calculation?
   LNONCOLLINEAR =      F non collinear calculations
   LSORBIT =      F    spin-orbit coupling
   INIWAV =      1    electr: 0-lowe 1-rand  2-diag
   LASPH  =      F    aspherical Exc in radial PAW
   METAGGA=      F    non-selfconsistent MetaGGA calc.

 Electronic Relaxation 1
   ENCUT  =  600.0 eV  44.10 Ry    6.64 a.u.  30.87 62.37 12.35*2*pi/ulx,y,z
   ENINI  =  600.0     initial cutoff
   ENAUG  =  644.9 eV  augmentation charge cutoff
   NELM   =     80;   NELMIN=  8; NELMDL= -5     # of ELM steps 
   EDIFF  = 0.1E-05   stopping-criterion for ELM
   LREAL  =      T    real-space projection
   NLSPLINE    = F    spline interpolate recip. space projectors
   LCOMPAT=      F    compatible to vasp.4.4
   GGA_COMPAT  = T    GGA compatible to vasp.4.4-vasp.4.6
   LMAXPAW     = -100 max onsite density
   LMAXMIX     =    2 max onsite mixed and CHGCAR
   VOSKOWN=      0    Vosko Wilk Nusair interpolation
   ROPT   =   -0.00050  -0.00050  -0.00050  -0.00050
   ROPT   =   -0.00050
 Ionic relaxation
   EDIFFG = -.1E-01   stopping-criterion for IOM
   NSW    =    500    number of steps for IOM
   NBLOCK =      1;   KBLOCK =    500    inner block; outer block 
   IBRION =      2    ionic relax: 0-MD 1-quasi-New 2-CG
   NFREE  =      1    steps in history (QN), initial steepest desc. (CG)
   ISIF   =      4    stress and relaxation
   IWAVPR =     11    prediction:  0-non 1-charg 2-wave 3-comb
   ISYM   =      0    0-nonsym 1-usesym 2-fastsym
   LCORR  =      T    Harris-Foulkes like correction to forces

   POTIM  = 0.5000    time-step for ionic-motion
   TEIN   =    0.0    initial temperature
   TEBEG  =    0.0;   TEEND  =   0.0 temperature during run
   SMASS  =  -3.00    Nose mass-parameter (am)
   estimated Nose-frequenzy (Omega)   =  0.10E-29 period in steps =****** mass=  -0.546E-26a.u.
   SCALEE = 1.0000    scale energy and forces
   NPACO  =    256;   APACO  = 16.0  distance and # of slots for P.C.
   PSTRESS=    0.0 pullay stress

  Mass of Ions in am
   POMASS =  12.01 58.93  1.00 14.00 16.00
  Ionic Valenz
   ZVAL   =   4.00  9.00  1.00  5.00  6.00
  Atomic Wigner-Seitz radii
   RWIGS  =  -1.00 -1.00 -1.00 -1.00 -1.00
  virtual crystal weights 
   VCA    =   1.00  1.00  1.00  1.00  1.00
   NELECT =     604.0000    total number of electrons
   NUPDOWN=      -1.0000    fix difference up-down

 DOS related values:
   EMIN   =  10.00;   EMAX   =-10.00  energy-range for DOS
   EFERMI =   0.00
   ISMEAR =     0;   SIGMA  =   0.05  broadening in eV -4-tet -1-fermi 0-gaus

 Electronic relaxation 2 (details)
   IALGO  =     38    algorithm
   LDIAG  =      T    sub-space diagonalisation (order eigenvalues)
   LSUBROT=      F    optimize rotation matrix (better conditioning)
   TURBO    =      0    0=normal 1=particle mesh
   IRESTART =      0    0=no restart 2=restart with 2 vectors
   NREBOOT  =      0    no. of reboots
   NMIN     =      0    reboot dimension
   EREF     =   0.00    reference energy to select bands
   IMIX   =      4    mixing-type and parameters
     AMIX     =   0.40;   BMIX     =  1.00
     AMIX_MAG =   1.60;   BMIX_MAG =  1.00
     AMIN     =   0.10
     WC   =   100.;   INIMIX=   1;  MIXPRE=   1;  MAXMIX= -45

 Intra band minimization:
   WEIMIN = 0.0010     energy-eigenvalue tresh-hold
   EBREAK =  0.65E-09  absolut break condition
   DEPER  =   0.30     relativ break condition  

   TIME   =   0.40     timestep for ELM

  volume/ion in A,a.u.               =      18.86       127.26
  Fermi-wavevector in a.u.,A,eV,Ry     =   0.965789  1.825077 12.690818  0.932749
  Thomas-Fermi vector in A             =   2.095536
 
 Write flags
   LWAVE        =      T    write WAVECAR
   LDOWNSAMPLE  =      F    k-point downsampling of WAVECAR
   LCHARG       =      T    write CHGCAR
   LVTOT        =      F    write LOCPOT, total local potential
   LVHAR        =      F    write LOCPOT, Hartree potential only
   LELF         =      F    write electronic localiz. function (ELF)
   LORBIT       =     11    0 simple, 1 ext, 2 COOP (PROOUT), +10 PAW based schemes


 Dipole corrections
   LMONO  =      F    monopole corrections only (constant potential shift)
   LDIPOL =      F    correct potential (dipole corrections)
   IDIPOL =      0    1-x, 2-y, 3-z, 4-all directions 
   EPSILON=  1.0000000 bulk dielectric constant

 Exchange correlation treatment:
   GGA     =    PE    GGA type
   LEXCH   =     8    internal setting for exchange type
   VOSKOWN=      0    Vosko Wilk Nusair interpolation
   LHFCALC =     F    Hartree Fock is set to
   LHFONE  =     F    Hartree Fock one center treatment
   AEXX    =    0.0000 exact exchange contribution

 Linear response parameters
   LEPSILON=     F    determine dielectric tensor
   LRPA    =     F    only Hartree local field effects (RPA)
   LNABLA  =     F    use nabla operator in PAW spheres
   LVEL    =     F    velocity operator in full k-point grid
   LINTERFAST=   F  fast interpolation
   KINTER  =     0    interpolate to denser k-point grid
   CSHIFT  =0.1000    complex shift for real part using Kramers Kronig
   OMEGAMAX=  -1.0    maximum frequency
   DEG_THRESHOLD= 0.2000000E-02 threshold for treating states as degnerate
   RTIME   =   -0.100 relaxation time in fs
  (WPLASMAI=    0.000 imaginary part of plasma frequency in eV, 0.658/RTIME)
   DFIELD  = 0.0000000 0.0000000 0.0000000 field for delta impulse in time
 
 Orbital magnetization related:
   ORBITALMAG=     F  switch on orbital magnetization
   LCHIMAG   =     F  perturbation theory with respect to B field
   DQ        =  0.001000  dq finite difference perturbation B field
   LLRAUG    =     F  two centre corrections for induced B field



--------------------------------------------------------------------------------------------------------


 conjugate gradient relaxation of ions
 charge density and potential will be updated during run
 spin polarized calculation
 Variant of blocked Davidson
 Davidson routine will perform the subspace rotation
 perform sub-space diagonalisation
    after iterative eigenvector-optimisation
 modified Broyden-mixing scheme, WC =      100.0
 initial mixing is a Kerker type mixing with AMIX =  0.4000 and BMIX =      1.0000
 Hartree-type preconditioning will be used
 using additional bands           82
 real space projection scheme for non local part
 use partial core corrections
 calculate Harris-corrections to forces 
   (improved forces if not selfconsistent)
 use gradient corrections 
 use of overlap-Matrix (Vanderbilt PP)
 Gauss-broadening in eV      SIGMA  =   0.05


--------------------------------------------------------------------------------------------------------


  energy-cutoff  :      600.00
  volume of cell :     2941.81
      direct lattice vectors                 reciprocal lattice vectors
    15.454764059  0.000240482 -0.002396608     0.064704969 -0.000005778  0.000011712
     0.002322915 31.126430024  2.522130865    -0.000000940  0.032355102 -0.002814613
    -0.001066970  0.535760501  6.158781357     0.000025564 -0.013249994  0.163522423

  length of vectors
    15.454764246 31.228445294  6.182040784     0.064704970  0.032477295  0.164058361


 
 k-points in units of 2pi/SCALE and weight: read from INCAR                         
   0.00000000  0.00000000  0.00000000       0.125
   0.03235248 -0.00000289  0.00000586       0.125
   0.00000639 -0.00331250  0.04088061       0.250
   0.03235888 -0.00331539  0.04088646       0.250
   0.00001278 -0.00662500  0.08176121       0.125
   0.03236527 -0.00662789  0.08176707       0.125
 
 k-points in reciprocal lattice and weights: read from INCAR                         
   0.00000000  0.00000000  0.00000000       0.125
   0.50000000 -0.00000000  0.00000000       0.125
   0.00000000 -0.00000000  0.25000000       0.250
   0.50000000  0.00000000  0.25000000       0.250
   0.00000000 -0.00000000  0.50000000       0.125
   0.50000000  0.00000000  0.50000000       0.125
 
 position of ions in fractional coordinates (direct lattice) 
   0.85544270  0.96316054  0.13444513
   0.93375626  0.97380284  0.42490354
   0.85629896  0.81648728  0.92129739
   0.64417876  0.46336652  0.63135775
   0.56541100  0.30614696  0.12818275
   0.06625711  0.80628232  0.13040077
   0.56596853  0.47390825  0.92205986
   0.64358375  0.31657162  0.41926758
   0.43461278  0.47405410  0.42171741
   0.14443429  0.81688382  0.42117879
   0.06521894  0.97401109  0.92450154
   0.43386500  0.30626928  0.62807819
   0.93462287  0.80608127  0.63054937
   0.14370724  0.96350904  0.63419848
   0.35566520  0.31689635  0.91864543
   0.35627127  0.46366764  0.13085278
   0.78135557  0.04046576  0.45342871
   0.85787301  0.06768260  0.09801405
   0.85889886  0.71193262  0.95691032
   0.64170668  0.56795901  0.59607559
   0.64066407  0.21202746  0.45541672
   0.21856179  0.73975609  0.10122578
   0.71806807  0.54050565  0.95159675
   0.71709807  0.23923985  0.09980802
   0.28290480  0.54084509  0.45137838
   0.14235803  0.71232416  0.45692663
   0.14056046  0.06808993  0.59798992
   0.35807850  0.21234561  0.95554589
   0.78276896  0.73934439  0.60099067
   0.21706305  0.04085319  0.95361371
   0.28176689  0.23956588  0.59960375
   0.35928783  0.56828688  0.09599141
   0.74536867  0.08461503  0.44933855
   0.82143053  0.11145989  0.10262282
   0.82263048  0.66815599  0.95113572
   0.67817326  0.61169607  0.60162523
   0.67682649  0.16820740  0.45032653
   0.25446801  0.69561603  0.10432666
   0.75403998  0.58462265  0.94851785
   0.75289096  0.19506156  0.10356283
   0.24711323  0.58499915  0.44852102
   0.17869125  0.66856120  0.45125456
   0.17697007  0.11186930  0.60281292
   0.32163100  0.16857554  0.95076342
   0.74687202  0.69521217  0.60406492
   0.25295099  0.08500893  0.94980581
   0.24572471  0.19543220  0.60365246
   0.32296412  0.61205457  0.10170908
   0.69085029  0.09248036  0.61712786
   0.84161056  0.14554594  0.93540378
   0.84268593  0.63398100  0.11804429
   0.65811009  0.64587413  0.43475657
   0.65660455  0.13411806  0.61747357
   0.30884552  0.68785129  0.93605833
   0.80842466  0.59237500  0.11688692
   0.80735728  0.18718386  0.93568440
   0.19276511  0.59276563  0.61685367
   0.15859686  0.63438914  0.61809059
   0.15682553  0.14595831  0.43555142
   0.34173682  0.13449395  0.11809973
   0.69245250  0.68746497  0.43577187
   0.30743740  0.09287057  0.11775832
   0.19119605  0.18757206  0.43578861
   0.34308135  0.64623746  0.93494611
   0.87107108  0.99280405  0.27656230
   0.87221467  0.78689817  0.77908362
   0.62848485  0.49298917  0.77356326
   0.62774181  0.28696439  0.27707092
   0.12884980  0.78725912  0.27895061
   0.37219970  0.49325353  0.27311520
   0.12771897  0.99314737  0.77610182
   0.37137305  0.28722585  0.77672377
   0.76640137  0.11867702  0.27610247
   0.76778963  0.66105184  0.77699363
   0.73313639  0.61877914  0.77557731
   0.73180451  0.16098749  0.27673357
   0.23351472  0.66145267  0.27716805
   0.26807713  0.61916079  0.27568540
   0.23197819  0.11907702  0.77645443
   0.26667102  0.16136827  0.77704735
   0.96795731  0.88998509  0.02769299
   0.03191598  0.89007469  0.52769844
   0.53181190  0.39006016  0.52504635
   0.46803543  0.39012810  0.02479257
   0.38424229  0.14104229  0.24947858
   0.82340299  0.56541575  0.24754829
   0.82244140  0.21407526  0.80478545
   0.67579546  0.06558635  0.74803005
   0.67748122  0.71442064  0.30509120
   0.61563363  0.63942391  0.30311280
   0.11621123  0.64086413  0.74980040
   0.11428905  0.13942493  0.30420492
   0.88508361  0.64043919  0.24982787
   0.17617062  0.21445959  0.30477127
   0.17771612  0.56580206  0.74739932
   0.32386940  0.71481010  0.80546531
   0.38550642  0.63977506  0.80329379
   0.61412143  0.14067470  0.74882744
   0.88412964  0.13899390  0.80411316
   0.32250578  0.06597486  0.24869143
   0.53619552  0.48631846  0.05792308
   0.46361389  0.29382548  0.49227453
   0.31482879  0.46658330  0.98714349
   0.18588018  0.81408064  0.56484473
   0.03525876  0.98642406  0.06012539
   0.31422552  0.31410940  0.06223733
   0.81396243  0.96594292  0.99085282
   0.96447686  0.79373183  0.49460116
   0.18519541  0.96636988  0.49067195
   0.68560761  0.46619513  0.48772102
   0.53559550  0.29376320  0.99225444
   0.96357568  0.98626105  0.56061174
   0.68492438  0.31367491  0.56315133
   0.46447336  0.48641704  0.55764746
   0.03655304  0.79385600  0.99444661
   0.81488737  0.81358033  0.06499001
   0.90611097  0.92799439  0.19700708
   0.95428369  0.93475614  0.37427131
   0.90656437  0.85178833  0.85863337
   0.59368562  0.42814491  0.69402737
   0.54525052  0.34525608  0.17859303
   0.04570480  0.84532632  0.18106106
   0.54557527  0.43484680  0.87142200
   0.59335283  0.35188139  0.35622039
   0.45472325  0.43495662  0.37111722
   0.09380078  0.85206024  0.35850650
   0.04511883  0.93489362  0.87409654
   0.45424811  0.34535953  0.67840071
   0.95475844  0.84517399  0.68121136
   0.09340356  0.92822268  0.69691480
   0.40614364  0.35210821  0.85572394
   0.40653774  0.42835336  0.19359527
   0.83379576  0.03457176  0.27286983
   0.83511596  0.74511393  0.78201764
   0.66573271  0.53474167  0.77052786
   0.66471915  0.24513586  0.28051509
   0.16619421  0.74551659  0.28217103
   0.33516769  0.53505782  0.27026787
   0.16472812  0.03496281  0.77274405
   0.33415665  0.24544924  0.78040427
   0.76671698  0.01029536  0.60347635
   0.90637191  0.06007620  0.95160233
   0.90693499  0.71948343  0.10442918
   0.59328129  0.56047244  0.44919119
   0.59249983  0.21966544  0.60243071
   0.23319393  0.77002190  0.95166689
   0.73264410  0.51023898  0.10124232
   0.73189819  0.26943958  0.95002177
   0.26822174  0.51057008  0.60087689
   0.09418121  0.71984628  0.60415675
   0.09210114  0.06049523  0.45140043
   0.40639393  0.21994228  0.10242660
   0.76807348  0.76961517  0.45145408
   0.23173200  0.01066490  0.10359088
   0.26718797  0.26973782  0.44949074
   0.40764846  0.56079161  0.94907567
 
 position of ions in cartesian coordinates  (Angst):
  13.22275904 30.05198540  3.25518491
  14.43279145 30.53887718  5.07070838
  13.23481206 25.90813498  7.73130473
   9.95603344 14.76135696  5.05552148
   8.73886794  9.59807320  1.56023717
   1.02572180 25.16656961  2.83650054
   8.74702720 15.24521133  6.87266731
   9.94672301 10.07852606  3.37906999
   6.71748925 14.98165585  3.79185021
   2.23364608 25.65236281  4.65388983
   1.00921947 30.81281516  8.15022999
   6.70532255  9.86967313  4.63960767
  14.44557558 25.42848034  5.91421820
   2.22252295 30.33040990  6.33564128
   5.49647778 10.35611153  6.45613800
   5.50702585 14.50250987  1.97447029
  12.07527616  1.50267187  2.89275564
  13.25827763  2.15943592  0.77229548
  13.27471203 22.67280209  7.68693024
   9.91810863 17.99804443  5.10202829
   9.90131863  6.84380637  3.33803757
   3.37943121 23.08025158  2.48866530
  11.09781278 17.33401179  7.22218140
  11.08303071  7.50032811  1.21637136
   4.37300159 17.07647568  4.14334486
   2.20127688 22.41694558  4.61034479
   2.17184895  2.43980957  3.85428403
   5.53349244  7.12159074  6.41970349
  12.09858574 23.33532686  5.56421748
   3.35373557  1.78257467  5.97561523
   4.35455751  7.77814232  4.29636963
   5.55392630 17.74025657  2.02362292
  11.51921400  2.87468085  2.97900167
  12.69516449  3.52452738  0.91117931
  12.71409715 21.30708953  7.54104229
  10.48178670 19.36240492  5.24643046
  10.46010397  5.47712590  3.19608164
   3.93424758 21.70799906  2.39634991
  11.65385601 18.70557580  7.31440175
  11.63609475  6.12723604  1.12798722
   3.81995705 18.44929450  4.23719510
   2.76270263 21.05173080  4.46494873
   2.73464736  3.80509783  3.99431783
   4.97010844  5.75661361  6.27994278
  11.54370124 21.96328682  5.47192992
   3.90848185  3.15495363  6.06344375
   3.79742737  6.40657899  4.21008022
   4.99264753 19.10564297  2.16931169
  10.67648459  3.20938230  4.03234745
  13.00623271  5.03168031  6.12601624
  13.02485897 19.79701133  2.32397242
  10.17197260 20.33683963  4.30497254
  10.14732109  4.50559213  4.13957436
   4.77373375 21.91193244  7.49908938
  12.49526372 18.50133678  2.21199078
  12.47695272  6.32786215  6.23284293
   2.97985811 18.78121002  5.29363739
   2.45189120 20.07745572  5.40631711
   2.42357593  4.77655024  3.05021609
   5.28164838  4.24967198  1.06574279
  10.70282201 21.63196614  4.41604076
   4.75146251  2.95389345  0.95874268
   2.95486064  6.07197278  3.15654980
   5.30274495 20.61605491  7.38720188
  13.46420910 31.05082650  4.20518089
  13.48086860 24.91094267  6.78077545
   9.71340481 15.75958878  6.00608395
   9.70197249  9.08077167  2.42867653
   1.99287433 24.65404760  3.70325752
   5.75311298 15.49963528  2.92521472
   1.97534549 31.32896739  7.28438296
   5.73932135  9.35654267  5.50720305
  11.84453349  3.84210103  1.99793696
  11.86671417 20.99265083  6.45075305
  11.33105983 19.67608573  6.33549601
  11.30994466  5.15940478  2.10861920
   3.61015574 20.73721220  3.37472799
   4.14421295 19.42003089  3.25884816
   3.58461636  4.12249196  5.08178491
   4.12088352  5.43919356  5.19201751
  14.96158966 27.71712824  2.41289414
   0.49475840 27.98757512  5.49478768
   8.21937325 12.42260719  4.21615391
   7.23425695 12.15669044  1.13552441
   5.93843537  4.52389599  1.89129024
  12.72654815 17.73219829  2.94867496
  12.71027642  7.09476862  5.49445239
  10.44361356  2.44239627  4.77075124
  10.47164645 22.40098273  3.67922867
   9.51563434 20.06552752  3.47804082
   1.79670586 20.34955381  6.23392138
   1.76630961  4.50280893  2.22490563
  13.67997948 20.06864630  3.15178547
   2.72284839  6.83868833  2.41749256
   2.74707754 18.01186791  6.02966991
   5.00612620 22.68110103  6.76275318
   5.95853976 20.34437931  6.55998333
   9.49062956  4.78004114  4.96519265
  13.66347993  4.75740847  5.30079903
   4.98413868  2.18687841  1.69726045
   8.28784308 15.16851938  1.58200932
   7.16520062  9.40959090  3.77176640
   4.86563522 15.05202078  7.25563057
   2.87402268 25.64209032  5.53152761
   0.54714300 30.73608087  2.85810521
   4.85694459  9.81052413  1.17477805
  12.58078398 30.59741011  8.53672955
  14.90707830 24.97125787  5.04572445
   2.86387267 30.34257149  5.45880870
  10.59646642 14.77245651  4.17792910
   8.27712574  9.67553921  6.85070376
  14.89352759 30.99937084  5.93785524
  10.58547239 10.06545917  4.25781361
   7.17886116 15.43930323  4.66012308
   0.56570168 25.24269719  8.12670037
  12.59571264 25.35886621  2.45026234
  14.00567673 28.99091893  3.55167522
  14.75000127 29.29637098  4.66034547
  14.01180090 26.97336974  7.43428418
   9.17552523 13.69859781  5.35277748
   8.42732958 10.84240335  1.96938966
   0.70812731 26.40900692  3.24702955
   8.43181741 14.00223327  6.46233056
   9.17056528 11.14380298  3.07995236
   7.02825493 13.73758599  3.38155752
   1.45126561 26.71368977  4.35674580
   0.69853999 29.56821817  7.74118539
   7.02037578 11.11337863  5.04807489
  14.75680286 26.67244469  6.32478303
   1.44494262 29.26566033  6.63302111
   6.27675907 11.41843237  6.15730627
   6.28373330 13.43692949  2.27169986
  12.88590597  1.22248876  1.76574182
  12.90741653 23.61191144  6.69354907
  10.28916203 17.05757753  6.09260560
  10.27334772  7.78065310  2.34430275
   2.56992297 23.35648601  3.61772177
   5.18089202 16.79931919  3.01320329
   2.54509099  1.50231281  4.84694765
   5.16404974  8.05814883  5.42459354
  11.84881001  0.64396110  3.74080763
  14.00688820  2.38000659  6.01005849
  14.01802610 22.45111764  2.45561430
   9.16984496 17.68630767  4.17863330
   9.15681258  7.16030205  4.26284402
   3.60473050 24.47795427  7.80264539
  11.32391897 15.93633578  1.90866292
  11.31092610  8.89585241  6.52878418
   4.14584854 16.21421446  4.98775115
   1.45657589 22.72995084  5.53619015
   1.42306028  2.12486533  2.93243273
   6.28112396  6.90099189  1.18457229
  11.87170040 24.19742866  4.71963640
   3.58127765  0.38751593  0.66433647
   4.12947401  8.63685888  3.44798894
   6.30040085 17.96401613  7.25856242
 


--------------------------------------------------------------------------------------------------------


 k-point  1 :   0.0000 0.0000 0.0000  plane waves:   98257
 k-point  2 :   0.5000-0.0000 0.0000  plane waves:   98210
 k-point  3 :   0.0000-0.0000 0.2500  plane waves:   98130
 k-point  4 :   0.5000 0.0000 0.2500  plane waves:   98204
 k-point  5 :   0.0000-0.0000 0.5000  plane waves:   98150
 k-point  6 :   0.5000 0.0000 0.5000  plane waves:   98148

 maximum and minimum number of plane-waves per node :     24672    24465

 maximum number of plane-waves:     98257
 maximum index in each direction: 
   IXMAX=   30   IYMAX=   62   IZMAX=   12
   IXMIN=  -31   IYMIN=  -62   IZMIN=  -12


 real space projection operators:
  total allocation   :      12735.16 KBytes
  max/ min on nodes  :       3212.22       3163.30


 parallel 3D FFT for wavefunctions:
    minimum data exchange during FFTs selected (reduces bandwidth)
 parallel 3D FFT for charge:
    minimum data exchange during FFTs selected (reduces bandwidth)


 total amount of memory used by VASP MPI-rank0   128022. kBytes
=======================================================================

   base      :      30000. kBytes
   nonlr-proj:      10139. kBytes
   fftplans  :       7672. kBytes
   grid      :      21417. kBytes
   one-center:       1213. kBytes
   wavefun   :      57581. kBytes
 
     INWAV:  cpu time    0.0002: real time    0.0006
 Broyden mixing: mesh for mixing (old mesh)
   NGX = 61   NGY =125   NGZ = 25
  (NGX  =192   NGY  =384   NGZ  = 80)
  gives a total of 190625 points

 initial charge density was supplied:
 charge density of overlapping atoms calculated
 number of electron     604.0000000 magnetization      -0.0000000
 keeping initial charge density in first step


--------------------------------------------------------------------------------------------------------


 Maximum index for non-local projection operator          570
 Maximum index for augmentation-charges          432 (set IRDMAX)


--------------------------------------------------------------------------------------------------------


 First call to EWALD:  gamma=   0.124
 Maximum number of real-space cells 3x 2x 6
 Maximum number of reciprocal cells 3x 5x 1

    FEWALD:  cpu time    0.0171: real time    0.0171


--------------------------------------- Iteration      1(   1)  ---------------------------------------


    POTLOK:  cpu time    0.3102: real time    0.3940
    SETDIJ:  cpu time    0.0651: real time    0.0671
     EDDAV:  cpu time   31.7181: real time   31.8290
       DOS:  cpu time    0.0052: real time    0.0052
    --------------------------------------------
      LOOP:  cpu time   32.0987: real time   32.2953

 eigenvalue-minimisations  :  9216
 total energy-change (2. order) : 0.5149931E+04  (-0.2875202E+05)
 number of electron     604.0000000 magnetization      -0.0000000
 augmentation part      604.0000000 magnetization      -0.0000000

 Free energy of the ion-electron system (eV)
  ---------------------------------------------------
  alpha Z        PSCENC =       574.24267358
  Ewald energy   TEWEN  =     21385.06931211
  -Hartree energ DENC   =    -45990.42739865
  -exchange      EXHF   =         0.00000000
  -V(xc)+E(xc)   XCENC  =      2116.98001384
  PAW double counting   =     22087.95224925   -22402.63741193
  entropy T*S    EENTRO =        -0.03794786
  eigenvalues    EBANDS =     -1313.02066379
  atomic energy  EATOM  =     28691.81066055
  Solvation  Ediel_sol  =         0.00000000
  ---------------------------------------------------
  free energy    TOTEN  =      5149.93148710 eV

  energy without entropy =     5149.96943495  energy(sigma->0) =     5149.95046103


--------------------------------------------------------------------------------------------------------




--------------------------------------- Iteration      1(   2)  ---------------------------------------


     EDDAV:  cpu time   40.5466: real time   40.6041
       DOS:  cpu time    0.0035: real time    0.0035
    --------------------------------------------
      LOOP:  cpu time   40.5501: real time   40.6076

 eigenvalue-minimisations  : 12576
 total energy-change (2. order) :-0.5611540E+04  (-0.5402048E+04)
 number of electron     604.0000000 magnetization      -0.0000000
 augmentation part      604.0000000 magnetization      -0.0000000

 Free energy of the ion-electron system (eV)
  ---------------------------------------------------
  alpha Z        PSCENC =       574.24267358
  Ewald energy   TEWEN  =     21385.06931211
  -Hartree energ DENC   =    -45990.42739865
  -exchange      EXHF   =         0.00000000
  -V(xc)+E(xc)   XCENC  =      2116.98001384
  PAW double counting   =     22087.95224925   -22402.63741193
  entropy T*S    EENTRO =        -0.00000297
  eigenvalues    EBANDS =     -6924.59819287
  atomic energy  EATOM  =     28691.81066055
  Solvation  Ediel_sol  =         0.00000000
  ---------------------------------------------------
  free energy    TOTEN  =      -461.60809709 eV

  energy without entropy =     -461.60809412  energy(sigma->0) =     -461.60809560


--------------------------------------------------------------------------------------------------------




--------------------------------------- Iteration      1(   3)  ---------------------------------------


     EDDAV:  cpu time   36.0204: real time   36.0694
       DOS:  cpu time    0.0047: real time    0.0047
    --------------------------------------------
      LOOP:  cpu time   36.0251: real time   36.0741

 eigenvalue-minimisations  : 10912
 total energy-change (2. order) :-0.8052870E+03  (-0.7981227E+03)
 number of electron     604.0000000 magnetization      -0.0000000
 augmentation part      604.0000000 magnetization      -0.0000000

 Free energy of the ion-electron system (eV)
  ---------------------------------------------------
  alpha Z        PSCENC =       574.24267358
  Ewald energy   TEWEN  =     21385.06931211
  -Hartree energ DENC   =    -45990.42739865
  -exchange      EXHF   =         0.00000000
  -V(xc)+E(xc)   XCENC  =      2116.98001384
  PAW double counting   =     22087.95224925   -22402.63741193
  entropy T*S    EENTRO =        -0.07513051
  eigenvalues    EBANDS =     -7729.81010967
  atomic energy  EATOM  =     28691.81066055
  Solvation  Ediel_sol  =         0.00000000
  ---------------------------------------------------
  free energy    TOTEN  =     -1266.89514143 eV

  energy without entropy =    -1266.82001092  energy(sigma->0) =    -1266.85757617


--------------------------------------------------------------------------------------------------------




--------------------------------------- Iteration      1(   4)  ---------------------------------------


     EDDAV:  cpu time   38.3116: real time   38.3582
       DOS:  cpu time    0.0047: real time    0.0047
    --------------------------------------------
      LOOP:  cpu time   38.3163: real time   38.3629

 eigenvalue-minimisations  : 12288
 total energy-change (2. order) :-0.2799257E+02  (-0.2779128E+02)
 number of electron     604.0000000 magnetization      -0.0000000
 augmentation part      604.0000000 magnetization      -0.0000000

 Free energy of the ion-electron system (eV)
  ---------------------------------------------------
  alpha Z        PSCENC =       574.24267358
  Ewald energy   TEWEN  =     21385.06931211
  -Hartree energ DENC   =    -45990.42739865
  -exchange      EXHF   =         0.00000000
  -V(xc)+E(xc)   XCENC  =      2116.98001384
  PAW double counting   =     22087.95224925   -22402.63741193
  entropy T*S    EENTRO =        -0.08853782
  eigenvalues    EBANDS =     -7757.78927372
  atomic energy  EATOM  =     28691.81066055
  Solvation  Ediel_sol  =         0.00000000
  ---------------------------------------------------
  free energy    TOTEN  =     -1294.88771280 eV

  energy without entropy =    -1294.79917497  energy(sigma->0) =    -1294.84344389


--------------------------------------------------------------------------------------------------------




--------------------------------------- Iteration      1(   5)  ---------------------------------------


     EDDAV:  cpu time   40.7814: real time   40.8347
       DOS:  cpu time    0.0048: real time    0.0048
    CHARGE:  cpu time    1.2769: real time    1.2818
    MIXING:  cpu time    0.0111: real time    0.0135
    --------------------------------------------
      LOOP:  cpu time   42.0742: real time   42.1348

 eigenvalue-minimisations  : 13088
 total energy-change (2. order) :-0.8435496E+00  (-0.8419667E+00)
 number of electron     603.9999976 magnetization      -0.0000997
 augmentation part       37.3226038 magnetization       0.0010381

 Broyden mixing:
  rms(total) = 0.84659E+01    rms(broyden)= 0.84653E+01
  rms(prec ) = 0.90144E+01
  weight for this iteration     100.00

 Free energy of the ion-electron system (eV)
  ---------------------------------------------------
  alpha Z        PSCENC =       574.24267358
  Ewald energy   TEWEN  =     21385.06931211
  -Hartree energ DENC   =    -45990.42739865
  -exchange      EXHF   =         0.00000000
  -V(xc)+E(xc)   XCENC  =      2116.98001384
  PAW double counting   =     22087.95224925   -22402.63741193
  entropy T*S    EENTRO =        -0.08912771
  eigenvalues    EBANDS =     -7758.63223348
  atomic energy  EATOM  =     28691.81066055
  Solvation  Ediel_sol  =         0.00000000
  ---------------------------------------------------
  free energy    TOTEN  =     -1295.73126244 eV

  energy without entropy =    -1295.64213474  energy(sigma->0) =    -1295.68669859


--------------------------------------------------------------------------------------------------------




--------------------------------------- Iteration      1(   6)  ---------------------------------------


    POTLOK:  cpu time    0.2664: real time    0.2665
    SETDIJ:  cpu time    0.0646: real time    0.0646
     EDDAV:  cpu time   45.6898: real time   45.7445
       DOS:  cpu time    0.0051: real time    0.0051
    CHARGE:  cpu time    1.1878: real time    1.1890
    MIXING:  cpu time    0.0103: real time    0.0134
    --------------------------------------------
      LOOP:  cpu time   47.2239: real time   47.2830

 eigenvalue-minimisations  : 14624
 total energy-change (2. order) :-0.1953385E+03  (-0.2333337E+03)
 number of electron     603.9999946 magnetization      -0.0000920
 augmentation part       56.7070568 magnetization       0.0087283

 Broyden mixing:
  rms(total) = 0.21345E+02    rms(broyden)= 0.21345E+02
  rms(prec ) = 0.21596E+02
  weight for this iteration     100.00

 eigenvalues of (default mixing * dielectric matrix)
  average eigenvalue GAMMA=   0.0995
  0.0995

 Free energy of the ion-electron system (eV)
  ---------------------------------------------------
  alpha Z        PSCENC =       574.24267358
  Ewald energy   TEWEN  =     21385.06931211
  -Hartree energ DENC   =    -46416.82528983
  -exchange      EXHF   =         0.00000000
  -V(xc)+E(xc)   XCENC  =      2154.61734594
  PAW double counting   =     32855.85333851   -33084.31885237
  entropy T*S    EENTRO =        -0.12556262
  eigenvalues    EBANDS =     -7651.39335238
  atomic energy  EATOM  =     28691.81066055
  Solvation  Ediel_sol  =         0.00000000
  ---------------------------------------------------
  free energy    TOTEN  =     -1491.06972651 eV

  energy without entropy =    -1490.94416389  energy(sigma->0) =    -1491.00694520


--------------------------------------------------------------------------------------------------------




--------------------------------------- Iteration      1(   7)  ---------------------------------------


    POTLOK:  cpu time    0.2786: real time    0.2787
    SETDIJ:  cpu time    0.0646: real time    0.0654
     EDDAV:  cpu time   34.1998: real time   34.2408
       DOS:  cpu time    0.0051: real time    0.0051
    CHARGE:  cpu time    1.1821: real time    1.1846
    MIXING:  cpu time    0.0074: real time    0.0090
    --------------------------------------------
      LOOP:  cpu time   35.7375: real time   35.7836

 eigenvalue-minimisations  : 10816
 total energy-change (2. order) : 0.8974649E+02  (-0.1932557E+02)
 number of electron     603.9999947 magnetization       0.0029802
 augmentation part       54.9459656 magnetization      -0.0225017

 Broyden mixing:
  rms(total) = 0.13882E+02    rms(broyden)= 0.13882E+02
  rms(prec ) = 0.14219E+02
  weight for this iteration     100.00

 eigenvalues of (default mixing * dielectric matrix)
  average eigenvalue GAMMA=   0.4672
  0.4672  0.4672

 Free energy of the ion-electron system (eV)
  ---------------------------------------------------
  alpha Z        PSCENC =       574.24267358
  Ewald energy   TEWEN  =     21385.06931211
  -Hartree energ DENC   =    -46541.43511964
  -exchange      EXHF   =         0.00000000
  -V(xc)+E(xc)   XCENC  =      2156.69102356
  PAW double counting   =     34315.91394401   -34572.49734734
  entropy T*S    EENTRO =        -0.13229233
  eigenvalues    EBANDS =     -7410.98609165
  atomic energy  EATOM  =     28691.81066055
  Solvation  Ediel_sol  =         0.00000000
  ---------------------------------------------------
  free energy    TOTEN  =     -1401.32323716 eV

  energy without entropy =    -1401.19094483  energy(sigma->0) =    -1401.25709100


--------------------------------------------------------------------------------------------------------




--------------------------------------- Iteration      1(   8)  ---------------------------------------


    POTLOK:  cpu time    0.2671: real time    0.2672
    SETDIJ:  cpu time    0.0648: real time    0.0648
     EDDAV:  cpu time   41.1212: real time   41.1705
       DOS:  cpu time    0.0055: real time    0.0055
    CHARGE:  cpu time    1.1863: real time    1.1876
    MIXING:  cpu time    0.0075: real time    0.0082
    --------------------------------------------
      LOOP:  cpu time   42.6523: real time   42.7038

 eigenvalue-minimisations  : 13088
 total energy-change (2. order) : 0.2443787E+03  (-0.2381445E+02)
 number of electron     603.9999961 magnetization       0.0031697
 augmentation part       45.7504589 magnetization       0.0080001

 Broyden mixing:
  rms(total) = 0.30800E+01    rms(broyden)= 0.30797E+01
  rms(prec ) = 0.31237E+01
  weight for this iteration     100.00

 eigenvalues of (default mixing * dielectric matrix)
  average eigenvalue GAMMA=   0.4953
  0.5575  0.4643  0.4643

 Free energy of the ion-electron system (eV)
  ---------------------------------------------------
  alpha Z        PSCENC =       574.24267358
  Ewald energy   TEWEN  =     21385.06931211
  -Hartree energ DENC   =    -46893.82270303
  -exchange      EXHF   =         0.00000000
  -V(xc)+E(xc)   XCENC  =      2166.82434179
  PAW double counting   =     39651.73211893   -39988.55321615
  entropy T*S    EENTRO =        -0.00783109
  eigenvalues    EBANDS =     -6744.23993043
  atomic energy  EATOM  =     28691.81066055
  Solvation  Ediel_sol  =         0.00000000
  ---------------------------------------------------
  free energy    TOTEN  =     -1156.94457374 eV

  energy without entropy =    -1156.93674265  energy(sigma->0) =    -1156.94065820


--------------------------------------------------------------------------------------------------------




--------------------------------------- Iteration      1(   9)  ---------------------------------------


    POTLOK:  cpu time    0.2611: real time    0.2612
    SETDIJ:  cpu time    0.0643: real time    0.0643
     EDDAV:  cpu time   40.6637: real time   40.7122
       DOS:  cpu time    0.0047: real time    0.0047
    CHARGE:  cpu time    1.2805: real time    1.2815
    MIXING:  cpu time    0.0149: real time    0.0149
    --------------------------------------------
      LOOP:  cpu time   42.2893: real time   42.3388

 eigenvalue-minimisations  : 12704
 total energy-change (2. order) :-0.1498164E+02  (-0.1359918E+02)
 number of electron     603.9999970 magnetization      -0.0023236
 augmentation part       39.9186362 magnetization       0.0449925

 Broyden mixing:
  rms(total) = 0.39434E+01    rms(broyden)= 0.39433E+01
  rms(prec ) = 0.41432E+01
  weight for this iteration     100.00

 eigenvalues of (default mixing * dielectric matrix)
  average eigenvalue GAMMA=   0.5843
  0.8199  0.5799  0.4688  0.4688

 Free energy of the ion-electron system (eV)
  ---------------------------------------------------
  alpha Z        PSCENC =       574.24267358
  Ewald energy   TEWEN  =     21385.06931211
  -Hartree energ DENC   =    -47137.42434976
  -exchange      EXHF   =         0.00000000
  -V(xc)+E(xc)   XCENC  =      2178.30008443
  PAW double counting   =     44839.22739871   -45189.23986420
  entropy T*S    EENTRO =        -0.07174569
  eigenvalues    EBANDS =     -6513.84038230
  atomic energy  EATOM  =     28691.81066055
  Solvation  Ediel_sol  =         0.00000000
  ---------------------------------------------------
  free energy    TOTEN  =     -1171.92621257 eV

  energy without entropy =    -1171.85446688  energy(sigma->0) =    -1171.89033972


--------------------------------------------------------------------------------------------------------




--------------------------------------- Iteration      1(  10)  ---------------------------------------


    POTLOK:  cpu time    0.2671: real time    0.2673
    SETDIJ:  cpu time    0.0646: real time    0.0646
     EDDAV:  cpu time   40.3457: real time   40.4170
       DOS:  cpu time    0.0045: real time    0.0045
    CHARGE:  cpu time    1.1893: real time    1.1902
    MIXING:  cpu time    0.0072: real time    0.0072
    --------------------------------------------
      LOOP:  cpu time   41.8783: real time   41.9508

 eigenvalue-minimisations  : 13312
 total energy-change (2. order) : 0.4399503E+01  (-0.1483479E+02)
 number of electron     603.9999960 magnetization       0.1150342
 augmentation part       46.1421403 magnetization      -1.2194821

 Broyden mixing:
  rms(total) = 0.24949E+01    rms(broyden)= 0.24948E+01
  rms(prec ) = 0.25941E+01
  weight for this iteration     100.00

 eigenvalues of (default mixing * dielectric matrix)
  average eigenvalue GAMMA=   0.6824
  1.5453  0.4700  0.4700  0.5557  0.3710

 Free energy of the ion-electron system (eV)
  ---------------------------------------------------
  alpha Z        PSCENC =       574.24267358
  Ewald energy   TEWEN  =     21385.06931211
  -Hartree energ DENC   =    -47223.50727121
  -exchange      EXHF   =         0.00000000
  -V(xc)+E(xc)   XCENC  =      2185.78037425
  PAW double counting   =     49549.60495000   -49887.92789657
  entropy T*S    EENTRO =        -0.01841799
  eigenvalues    EBANDS =     -6442.58109446
  atomic energy  EATOM  =     28691.81066055
  Solvation  Ediel_sol  =         0.00000000
  ---------------------------------------------------
  free energy    TOTEN  =     -1167.52670973 eV

  energy without entropy =    -1167.50829174  energy(sigma->0) =    -1167.51750074


--------------------------------------------------------------------------------------------------------




--------------------------------------- Iteration      1(  11)  ---------------------------------------


    POTLOK:  cpu time    0.2637: real time    0.2646
    SETDIJ:  cpu time    0.0646: real time    0.0646
     EDDAV:  cpu time   39.5755: real time   39.6215
       DOS:  cpu time    0.0047: real time    0.0047
    CHARGE:  cpu time    1.1820: real time    1.1834
    MIXING:  cpu time    0.0073: real time    0.0073
    --------------------------------------------
      LOOP:  cpu time   41.0978: real time   41.1461

 eigenvalue-minimisations  : 12960
 total energy-change (2. order) :-0.1590799E+02  (-0.1102632E+02)
 number of electron     603.9999971 magnetization       0.0593019
 augmentation part       45.3385147 magnetization       3.0010658

 Broyden mixing:
  rms(total) = 0.55152E+01    rms(broyden)= 0.55152E+01
  rms(prec ) = 0.59483E+01
  weight for this iteration     100.00

 eigenvalues of (default mixing * dielectric matrix)
  average eigenvalue GAMMA=   0.6817
  2.0612  0.4549  0.4549  0.4908  0.4908  0.1375

 Free energy of the ion-electron system (eV)
  ---------------------------------------------------
  alpha Z        PSCENC =       574.24267358
  Ewald energy   TEWEN  =     21385.06931211
  -Hartree energ DENC   =    -47384.81097742
  -exchange      EXHF   =         0.00000000
  -V(xc)+E(xc)   XCENC  =      2194.41598552
  PAW double counting   =     54067.63829436   -54407.59859314
  entropy T*S    EENTRO =        -0.02026778
  eigenvalues    EBANDS =     -6304.18178633
  atomic energy  EATOM  =     28691.81066055
  Solvation  Ediel_sol  =         0.00000000
  ---------------------------------------------------
  free energy    TOTEN  =     -1183.43469856 eV

  energy without entropy =    -1183.41443078  energy(sigma->0) =    -1183.42456467


--------------------------------------------------------------------------------------------------------




--------------------------------------- Iteration      1(  12)  ---------------------------------------


    POTLOK:  cpu time    0.2644: real time    0.2645
    SETDIJ:  cpu time    0.0650: real time    0.0650
     EDDAV:  cpu time   38.0800: real time   38.1257
       DOS:  cpu time    0.0051: real time    0.0052
    CHARGE:  cpu time    1.1806: real time    1.1818
    MIXING:  cpu time    0.0076: real time    0.0076
    --------------------------------------------
      LOOP:  cpu time   39.6026: real time   39.6498

 eigenvalue-minimisations  : 12352
 total energy-change (2. order) : 0.1668174E+02  (-0.4861756E+01)
 number of electron     603.9999959 magnetization       0.0847889
 augmentation part       45.4458146 magnetization      -0.6337679

 Broyden mixing:
  rms(total) = 0.15177E+01    rms(broyden)= 0.15176E+01
  rms(prec ) = 0.15985E+01
  weight for this iteration     100.00

 eigenvalues of (default mixing * dielectric matrix)
  average eigenvalue GAMMA=   0.6730
  2.1296  0.4486  0.4486  0.5430  0.5430  0.4864  0.1115

 Free energy of the ion-electron system (eV)
  ---------------------------------------------------
  alpha Z        PSCENC =       574.24267358
  Ewald energy   TEWEN  =     21385.06931211
  -Hartree energ DENC   =    -47460.34628707
  -exchange      EXHF   =         0.00000000
  -V(xc)+E(xc)   XCENC  =      2197.52102784
  PAW double counting   =     56016.36325979   -56358.52442549
  entropy T*S    EENTRO =        -0.00646567
  eigenvalues    EBANDS =     -6212.88271781
  atomic energy  EATOM  =     28691.81066055
  Solvation  Ediel_sol  =         0.00000000
  ---------------------------------------------------
  free energy    TOTEN  =     -1166.75296216 eV

  energy without entropy =    -1166.74649649  energy(sigma->0) =    -1166.74972933


--------------------------------------------------------------------------------------------------------




--------------------------------------- Iteration      1(  13)  ---------------------------------------


    POTLOK:  cpu time    0.2615: real time    0.2617
    SETDIJ:  cpu time    0.0645: real time    0.0645
     EDDAV:  cpu time   40.3148: real time   40.3668
       DOS:  cpu time    0.0046: real time    0.0046
    CHARGE:  cpu time    1.1887: real time    1.1899
    MIXING:  cpu time    0.0080: real time    0.0079
    --------------------------------------------
      LOOP:  cpu time   41.8421: real time   41.8955

 eigenvalue-minimisations  : 13184
 total energy-change (2. order) :-0.1854052E+01  (-0.1550892E+01)
 number of electron     603.9999963 magnetization       0.0840639
 augmentation part       44.9429869 magnetization       0.9127408

 Broyden mixing:
  rms(total) = 0.25477E+01    rms(broyden)= 0.25477E+01
  rms(prec ) = 0.26445E+01
  weight for this iteration     100.00

 eigenvalues of (default mixing * dielectric matrix)
  average eigenvalue GAMMA=   0.6213
  2.1937  0.4509  0.4509  0.5727  0.5727  0.4939  0.1374  0.0980

 Free energy of the ion-electron system (eV)
  ---------------------------------------------------
  alpha Z        PSCENC =       574.24267358
  Ewald energy   TEWEN  =     21385.06931211
  -Hartree energ DENC   =    -47492.25591966
  -exchange      EXHF   =         0.00000000
  -V(xc)+E(xc)   XCENC  =      2197.73601997
  PAW double counting   =     56701.09661091   -57043.08485791
  entropy T*S    EENTRO =        -0.00044456
  eigenvalues    EBANDS =     -6183.22106868
  atomic energy  EATOM  =     28691.81066055
  Solvation  Ediel_sol  =         0.00000000
  ---------------------------------------------------
  free energy    TOTEN  =     -1168.60701369 eV

  energy without entropy =    -1168.60656913  energy(sigma->0) =    -1168.60679141


--------------------------------------------------------------------------------------------------------




--------------------------------------- Iteration      1(  14)  ---------------------------------------


    POTLOK:  cpu time    0.2609: real time    0.2620
    SETDIJ:  cpu time    0.0702: real time    0.0702
     EDDAV:  cpu time   41.4166: real time   41.4644
[...]
   80            fft3d_mpi                            36.045600                     4920   5
   81              fftbas_plan_mpi                      36.026992                   4920   6
   82                dfftw_execute                        17.393658                14760   7
   83                map_forward                          15.924753                 9840   7
   84                  map_gather                            4.192590               4920   8
   85                  m_alltoallv_z                         3.449492               4920   8
   86                  map_scatter                           5.076366               4920   8
   87          pw_charge                             4.348197                       4920   4
   88          fft3d_mpi                             0.428377                         82   4
   89            fftbas_plan_mpi                       0.380675                       82   5
   90              dfftw_execute                         0.143619                    246   6
   91              map_backward                          0.192382                    164   6
   92                map_gather                            0.067987                  164   7
   93                m_alltoallv_z                         0.119242                  164   7
   94                map_scatter                           0.003053                  164   7
   95        depsum                                0.202984                           41   3
   96        fft3d_mpi                             0.452757                           82   3
   97          fftbas_plan_mpi                       0.436648                         82   4
   98            dfftw_execute                         0.078285                      246   5
   99            map_backward                          0.302756                      164   5
  100              map_gather                            0.015285                     82   6
  101              m_alltoallv_z                         0.263862                     82   6
  102              map_scatter                           0.022080                     82   6
  103      brmix                                 0.618334                             41   2
  104        brpre                                 0.005401                           82   3
  105        setg0                                 0.081053                           43   3
  106        broyd                                 0.388771                           41   3
  107          brsav                                 0.011142                       1033   4
  108          brget                                 0.039724                       4653   4
  109      force_and_stress                     26.925177                              1   2
  110        set_charge                            1.174878                            1   3
  111          soft_charge                           1.118315                          1   4
  112            fftwav_mpi                            0.967558                      120   5
  113              fft3d_mpi                             0.864571                    120   6
  114                fftbas_plan_mpi                       0.864056                  120   7
  115                  dfftw_execute                         0.422021                360   8
  116                  map_forward                           0.375648                240   8
  117                    map_gather                            0.103350              120   9
  118                    m_alltoallv_z                         0.071831              120   9
  119                    map_scatter                           0.122642              120   9
  120            pw_charge                             0.107365                      120   5
  121            fft3d_mpi                             0.010222                        2   5
  122              fftbas_plan_mpi                       0.009055                      2   6
  123                dfftw_execute                         0.003425                    6   7
  124                map_backward                          0.004526                    4   7
  125                  map_gather                            0.001669                  4   8
  126                  m_alltoallv_z                         0.002738                  4   8
  127                  map_scatter                           0.000072                  4   8
  128          depsum                                0.005792                          1   4
  129          fft3d_mpi                             0.009148                          2   4
  130            fftbas_plan_mpi                       0.008791                        2   5
  131              dfftw_execute                         0.001797                      6   6
  132              map_backward                          0.005475                      4   6
  133                map_gather                            0.000342                    2   7
  134                m_alltoallv_z                         0.004491                    2   7
  135                map_scatter                           0.000603                    2   7
  136        forloc                                0.149853                            1   3
  137        fornlr                                4.618089                            1   3
  138          rspher_all                            0.094569                          3   4
  139          phaser                                0.267597                         18   4
  140          rpro_isp                              4.245194                         18   4
  141            fftwav_mpi                            3.453928                      432   5
  142              fft3d_mpi                             3.075088                    432   6
  143                fftbas_plan_mpi                       3.073316                  432   7
  144                  dfftw_execute                         1.508636               1296   8
  145                  map_forward                           1.327833                864   8
  146                    map_gather                            0.358885              432   9
  147                    m_alltoallv_z                         0.262296              432   9
  148                    map_scatter                           0.433842              432   9
  149            rpromu                                0.787630                      108   5
  150              crrexp_mul_wave                       0.396465                  67392   6
  151              rpromu_gemm                           0.257813                  16848   6
  152        fordep                                0.206169                            1   3
  153          setdij_                               0.205647                          6   4
  154        setdij_                               0.679427                           20   3
  155        set_dd_paw                            0.030306                            1   3
  156        strkin                                0.025628                            1   3
  157        strelo                                0.005837                            1   3
  158        strnlr                               13.785579                            1   3
  159          rspher_all                            0.285132                          9   4
  160          phaser                                0.804520                         54   4
  161          rpro_isp                             12.653792                         54   4
  162            fftwav_mpi                           10.297680                     1296   5
  163              fft3d_mpi                             9.203396                   1296   6
  164                fftbas_plan_mpi                       9.198897                 1296   7
  165                  dfftw_execute                         4.520665               3888   8
  166                  map_forward                           3.967839               2592   8
  167                    map_gather                            1.067098             1296   9
  168                    m_alltoallv_z                         0.785404             1296   9
  169                    map_scatter                           1.297940             1296   9
  170            rpromu                                2.345568                      324   5
  171              crrexp_mul_wave                       1.190490                 202176   6
  172              rpromu_gemm                           0.765962                  50544   6
  173        fft3d_mpi                             0.093397                           22   3
  174          fftbas_plan_mpi                       0.089118                         22   4
  175            dfftw_execute                         0.022183                       66   5
  176            map_forward                           0.022604                       20   5
  177              map_gather                            0.001770                     10   6
  178              m_alltoallv_z                         0.018769                     10   6
  179              map_scatter                           0.001893                     10   6
  180            map_backward                          0.029293                       24   5
  181              map_gather                            0.002142                     12   6
  182              m_alltoallv_z                         0.023637                     12   6
  183              map_scatter                           0.003215                     12   6
  184        forhar                                0.270594                            2   3
  185        strehar                               0.006036                            1   3
  186        chggra                                0.019032                            1   3
  187          fft3d_mpi                             0.015314                          3   4
  188            fftbas_plan_mpi                       0.014776                        3   5
  189              dfftw_execute                         0.003062                      9   6
  190              map_forward                           0.006849                      4   6
  191                map_gather                            0.000337                    2   7
  192                m_alltoallv_z                         0.006025                    2   7
  193                map_scatter                           0.000387                    2   7
  194              map_backward                          0.002811                      2   6
  195                map_gather                            0.000177                    1   7
  196                m_alltoallv_z                         0.002356                    1   7
  197                map_scatter                           0.000251                    1   7
  198        brmix                                 0.028457                            1   3
  199          brpre                                 0.000085                          2   4
  200          setg0                                 0.001822                          1   4
  201          broyd                                 0.023024                          1   4
  202            brget                                 0.002304                      255   5
  203            brsav                                 0.000495                       46   5
 
 Flat profile
 ============
 
             routine name                   CPU           calls
 ---------------------------------------------------------------
 eddav                                 627.764349          46
 total_time                            437.128450           1
 dfftw_execute                         245.386379      210894
 redis_pw                              151.381736       63198
 orth1                                 125.199921       68838
 map_scatter                            75.723204       70468
 map_gather                             64.529217       70468
 m_alltoallv_z                          61.485373       70468
 fftwav_mpi                             53.398990       46084
 redis_proj                             49.212342       79484
 fftbas_plan_mpi                        39.495554       70300
 map_forward                            37.485629       93406
 crrexp_mul_work_add                    34.485271     3572088
 racc0                                  33.471889       22898
 vhamil                                 31.926447       22898
 lincom                                 21.498292         564
 rpro1                                  20.527457       16274
 crrexp_mul_wave                        16.337299     2830776
 phaser                                  9.336493         630
 w1_copy                                 9.163745       68694
 eccp                                    6.796743        6624
 fftext_mpi                              6.404412       22898
 force_and_stress                        5.831895           1
 pw_charge                               4.455562        5040
 kinhamil                                4.014109       22898
 setdij_                                 2.400356          70
 apply_precond                           2.188076       16274
 soft_charge                             2.130585          42
 set_charge                              1.746971          42
 overl                                   1.434160       39184
 set_dd_paw                              1.351308          44
 setup_precond                           1.350305        6624
 rpromu_gemm                             1.140538       73008
 overl1                                  1.104122       22898
 fft3d_mpi                               0.594131       70298
 rpromu                                  0.567568         468
 map_backward                            0.474391       47190
 rspher_all                              0.431580          14
 broyd                                   0.358130          42
 hamiltmu                                0.356421       22898
 forhar                                  0.270594           2
 choleski                                0.256089          12
 orthch                                  0.242774           1
 depsum                                  0.208776          42
 raccmu_                                 0.153234       22898
 forloc                                  0.149853           1
 brmix                                   0.146635          42
 w1_projall                              0.099437       16274
 setg0                                   0.082875          44
 strnlr                                  0.042135           1
 brget                                   0.042028        4908
 strkin                                  0.025628           1
 truncate_high_frequency_w1              0.021354       29522
 rpro_isp                                0.015769          78
 brsav                                   0.011638        1079
 fornlr                                  0.010729           1
 strehar                                 0.006036           1
 strelo                                  0.005837           1
 brpre                                   0.005486          84
 chggra                                  0.003718           1
 fordep                                  0.000522           1
 brgrid                                  0.000443           1
 redis_pw_over_bands                     0.000001           1
 ---------------------------------------------------------------
  summed up times    2191.87098598480     
 
 Accumulative profile
 ====================
 
             routine name                   CPU           calls
 ---------------------------------------------------------------
 total_time                           2191.870986           1
 eddav                                1666.172086          46
 fft3d_mpi                             525.117594       70298
 fftbas_plan_mpi                       524.579747       70300
 fftwav_mpi                            415.213860       46084
 hamiltmu                              269.105662       22898
 dfftw_execute                         245.386379      210894
 map_forward                           174.251955       93406
 kinhamil                              167.608278       22898
 fftext_mpi                            163.594170       22898
 redis_pw                              151.381736       63198
 orth1                                 125.199921       68838
 map_scatter                            75.723204       70468
 raccmu_                                69.214515       22898
 racc0                                  67.957159       22898
 map_backward                           65.445859       47190
 map_gather                             64.529217       70468
 m_alltoallv_z                          61.485373       70468
 set_charge                             50.700324          42
 redis_proj                             49.212342       79484
 soft_charge                            48.282673          42
 w1_projall                             35.256142       16274
 rpro1                                  35.156705       16274
 crrexp_mul_work_add                    34.485271     3572088
 vhamil                                 31.926447       22898
 force_and_stress                       26.925177           1
 lincom                                 21.498292         564
 rpro_isp                               18.371247          78
 crrexp_mul_wave                        16.337299     2830776
 strnlr                                 13.785579           1
 phaser                                  9.336493         630
 w1_copy                                 9.163745       68694
 eccp                                    6.796743        6624
 fornlr                                  4.618089           1
 pw_charge                               4.455562        5040
 rpromu                                  3.416157         468
 setdij_                                 2.400356          70
 apply_precond                           2.188076       16274
 orthch                                  1.887357           1
 overl                                   1.434160       39184
 set_dd_paw                              1.351308          44
 setup_precond                           1.350305        6624
 rpromu_gemm                             1.140538       73008
 overl1                                  1.104122       22898
 brmix                                   0.646791          42
 rspher_all                              0.431580          14
 broyd                                   0.411795          42
 forhar                                  0.270594           2
 choleski                                0.256089          12
 depsum                                  0.208776          42
 fordep                                  0.206169           1
 forloc                                  0.149853           1
 setg0                                   0.082875          44
 brget                                   0.042028        4908
 strkin                                  0.025628           1
 truncate_high_frequency_w1              0.021354       29522
 chggra                                  0.019032           1
 brsav                                   0.011638        1079
 strehar                                 0.006036           1
 strelo                                  0.005837           1
 brpre                                   0.005486          84
 brgrid                                  0.000443           1
 redis_pw_over_bands                     0.000001           1
 ---------------------------------------------------------------
 
Profiling took   4.525151  2.560752  0.011598  0.011208 seconds
Profiling took   5.341477 seconds
