       N       E                     dE             d eps       ncg     rms          rms(c)
DAV:   1     0.477347357427E+04    0.47735E+04   -0.29982E+05  9216   0.151E+03
DAV:   2    -0.725076971482E+03   -0.54986E+04   -0.54153E+04 13824   0.324E+02
DAV:   3    -0.128303173783E+04   -0.55795E+03   -0.55649E+03 10752   0.115E+02
DAV:   4    -0.129528949509E+04   -0.12258E+02   -0.12211E+02 12288   0.203E+01
DAV:   5    -0.129570557242E+04   -0.41608E+00   -0.41596E+00 12800   0.348E+00    0.848E+01
DAV:   6    -0.150234535596E+04   -0.20664E+03   -0.66708E+03 12288   0.913E+01    0.200E+02
DAV:   7    -0.139034456190E+04    0.11200E+03   -0.12454E+02 11520   0.305E+01    0.140E+02
DAV:   8    -0.117762718972E+04    0.21272E+03   -0.77136E+02 13696   0.130E+02    0.586E+01
DAV:   9    -0.118349314608E+04   -0.58660E+01   -0.80423E+02 13056   0.275E+01    0.505E+01
DAV:  10    -0.116863772295E+04    0.14855E+02   -0.15415E+02 15360   0.367E+01    0.470E+01
DAV:  11    -0.116194410397E+04    0.66936E+01   -0.12166E+02 13056   0.221E+01    0.370E+01
DAV:  12    -0.116885147962E+04   -0.69074E+01   -0.21456E+02 13056   0.190E+01    0.416E+01
DAV:  13    -0.117294967555E+04   -0.40982E+01   -0.11962E+02 15104   0.134E+01    0.576E+01
DAV:  14    -0.116329346734E+04    0.96562E+01   -0.11440E+02 14592   0.110E+01    0.291E+01
DAV:  15    -0.116220459451E+04    0.10889E+01   -0.26174E+01 13184   0.513E+00    0.161E+01
DAV:  16    -0.116304662606E+04   -0.84203E+00   -0.22042E+00 12416   0.344E+00    0.140E+01
DAV:  17    -0.116419657708E+04   -0.11500E+01   -0.11326E+00 12672   0.214E+00    0.138E+01
DAV:  18    -0.116466409569E+04   -0.46752E+00   -0.94891E-01 13312   0.230E+00    0.143E+01
DAV:  19    -0.116467076421E+04   -0.66685E-02   -0.18247E-01 13568   0.108E+00    0.139E+01
DAV:  20    -0.116529894530E+04   -0.62818E+00   -0.98068E-01 13824   0.321E+00    0.168E+01
DAV:  21    -0.116586240890E+04   -0.56346E+00   -0.19695E-01 12800   0.128E+00    0.158E+01
DAV:  22    -0.116626001835E+04   -0.39761E+00   -0.13257E+00 13056   0.339E+00    0.868E+00
DAV:  23    -0.116662797986E+04   -0.36796E+00   -0.47592E-01 13952   0.188E+00    0.949E+00
DAV:  24    -0.116667337012E+04   -0.45390E-01   -0.45894E-02 12800   0.825E-01    0.939E+00
DAV:  25    -0.116703832752E+04   -0.36496E+00   -0.11657E-01 12800   0.137E+00    0.862E+00
DAV:  26    -0.116728073058E+04   -0.24240E+00   -0.13079E-01 13824   0.108E+00    0.882E+00
DAV:  27    -0.116754907726E+04   -0.26835E+00   -0.17734E-01 12416   0.137E+00    0.716E+00
DAV:  28    -0.116816607244E+04   -0.61700E+00   -0.23369E-01 13056   0.187E+00    0.591E+00
DAV:  29    -0.116856776410E+04   -0.40169E+00   -0.17027E-01 13056   0.113E+00    0.544E+00
DAV:  30    -0.116872668310E+04   -0.15892E+00   -0.78751E-02 14080   0.112E+00    0.442E+00
DAV:  31    -0.116877698515E+04   -0.50302E-01   -0.18390E-02 13568   0.423E-01    0.403E+00
DAV:  32    -0.116879131849E+04   -0.14333E-01   -0.27338E-02 15232   0.660E-01    0.343E+00
DAV:  33    -0.116872474623E+04    0.66572E-01   -0.10877E-01 14720   0.134E+00    0.257E+00
DAV:  34    -0.116862134263E+04    0.10340E+00   -0.76713E-02 14208   0.110E+00    0.232E+00
DAV:  35    -0.116852357902E+04    0.97764E-01   -0.55707E-02 14208   0.102E+00    0.196E+00
DAV:  36    -0.116841190761E+04    0.11167E+00   -0.56061E-02 15232   0.116E+00    0.169E+00
DAV:  37    -0.116822766220E+04    0.18425E+00   -0.20154E-01 14592   0.237E+00    0.116E+00
DAV:  38    -0.116814038298E+04    0.87279E-01   -0.20625E-01 13568   0.208E+00    0.685E-01
DAV:  39    -0.116811922443E+04    0.21159E-01   -0.12293E-01 14080   0.126E+00    0.374E-01
DAV:  40    -0.116811705278E+04    0.21716E-02   -0.36801E-02 12416   0.440E-01    0.359E-01
DAV:  41    -0.116811926182E+04   -0.22090E-02   -0.34713E-03 12288   0.114E-01    0.391E-01
DAV:  42    -0.116812569679E+04   -0.64350E-02   -0.12585E-03 13824   0.136E-01    0.403E-01
DAV:  43    -0.116813488852E+04   -0.91917E-02   -0.11008E-02 15360   0.470E-01    0.499E-01
DAV:  44    -0.116813434297E+04    0.54555E-03   -0.18171E-03 12416   0.145E-01    0.390E-01
DAV:  45    -0.116813948499E+04   -0.51420E-02   -0.51624E-03 14080   0.150E-01    0.360E-01
DAV:  46    -0.116813989136E+04   -0.40637E-03   -0.17093E-03 14464   0.118E-01    0.242E-01
DAV:  47    -0.116814167158E+04   -0.17802E-02   -0.24606E-03 14208   0.191E-01    0.310E-01
DAV:  48    -0.116814148514E+04    0.18643E-03   -0.70628E-04 13056   0.931E-02    0.169E-01
DAV:  49    -0.116814269357E+04   -0.12084E-02   -0.25232E-04 13440   0.545E-02    0.153E-01
DAV:  50    -0.116814470908E+04   -0.20155E-02   -0.28293E-04 13696   0.545E-02    0.942E-02
DAV:  51    -0.116814643430E+04   -0.17252E-02   -0.70285E-04 14336   0.889E-02    0.583E-02
DAV:  52    -0.116814740007E+04   -0.96577E-03   -0.16124E-04 12800   0.291E-02    0.579E-02
DAV:  53    -0.116814808409E+04   -0.68402E-03   -0.72349E-05 13440   0.262E-02    0.487E-02
DAV:  54    -0.116814845017E+04   -0.36608E-03   -0.67637E-05 13696   0.317E-02    0.361E-02
DAV:  55    -0.116814855784E+04   -0.10767E-03   -0.29616E-05 14208   0.176E-02    0.273E-02
DAV:  56    -0.116814861867E+04   -0.60837E-04   -0.11561E-04 14720   0.480E-02    0.340E-02
DAV:  57    -0.116814870857E+04   -0.89899E-04   -0.32605E-05 12416   0.219E-02    0.196E-02
DAV:  58    -0.116814878109E+04   -0.72518E-04   -0.24647E-05 13824   0.204E-02    0.848E-03
DAV:  59    -0.116814883403E+04   -0.52941E-04   -0.15498E-05 13312   0.145E-02    0.125E-02
DAV:  60    -0.116814884824E+04   -0.14207E-04   -0.63130E-06 13056   0.663E-03    0.148E-02
DAV:  61    -0.116814884719E+04    0.10517E-05   -0.78830E-07  9216   0.363E-03    0.123E-02
DAV:  62    -0.116814885252E+04   -0.53323E-05   -0.54349E-07  8960   0.210E-03    0.122E-02
DAV:  63    -0.116814885706E+04   -0.45394E-05   -0.30818E-07  8832   0.176E-03    0.110E-02
DAV:  64    -0.116814885877E+04   -0.17157E-05   -0.39219E-07  9088   0.323E-03    0.812E-03
DAV:  65    -0.116814886234E+04   -0.35679E-05   -0.40513E-07  9088   0.280E-03    0.551E-03
DAV:  66    -0.116814886753E+04   -0.51910E-05   -0.83048E-07  8704   0.431E-03    0.212E-03
DAV:  67    -0.116814887324E+04   -0.57108E-05   -0.64420E-07  9216   0.158E-03    0.192E-03
DAV:  68    -0.116814887488E+04   -0.16352E-05   -0.91923E-08  9088   0.762E-04    0.152E-03
DAV:  69    -0.116814887848E+04   -0.35985E-05   -0.15029E-07  8704   0.864E-04    0.102E-03
DAV:  70    -0.116814888145E+04   -0.29711E-05   -0.26004E-07  8832   0.878E-04    0.626E-04
DAV:  71    -0.116814888123E+04    0.21949E-06   -0.64544E-08  8448   0.117E-03
   1 F= -.11794103E+04 E0= -.11794071E+04  d E =-.117941E+04  mag=    -0.0013
