 vasp.5.4.4.18Apr17-6-g9f103f2a35 (build May 22 2020 17:00:04) complex          
  
 executed on           IFC15_impi date 2020.09.25  13:13:14
 running on  512 total cores
 distrk:  each k-point on  512 cores,    1 groups
 distr:  one band on NCORES_PER_BAND=   4 cores,  128 groups


--------------------------------------------------------------------------------------------------------


 INCAR:
 POTCAR:    PAW_PBE C 08Apr2002                   
 POTCAR:    PAW_PBE Co 02Aug2007                  
 POTCAR:    PAW_PBE H 15Jun2001                   
 POTCAR:    PAW_PBE N 08Apr2002                   
 POTCAR:    PAW_PBE O 08Apr2002                   

 ----------------------------------------------------------------------------- 
|                                                                             |
|           W    W    AA    RRRRR   N    N  II  N    N   GGGG   !!!           |
|           W    W   A  A   R    R  NN   N  II  NN   N  G    G  !!!           |
|           W    W  A    A  R    R  N N  N  II  N N  N  G       !!!           |
|           W WW W  AAAAAA  RRRRR   N  N N  II  N  N N  G  GGG   !            |
|           WW  WW  A    A  R   R   N   NN  II  N   NN  G    G                |
|           W    W  A    A  R    R  N    N  II  N    N   GGGG   !!!           |
|                                                                             |
|      For optimal performance we recommend to set                            |
|        NCORE= 4 - approx SQRT( number of cores)                             |
|      NCORE specifies how many cores store one orbital (NPAR=cpu/NCORE).     |
|      This setting can  greatly improve the performance of VASP for DFT.     |
|      The default,   NCORE=1            might be grossly inefficient         |
|      on modern multi-core architectures or massively parallel machines.     |
|      Do your own testing !!!!                                               |
|      Unfortunately you need to use the default for GW and RPA calculations. |
|      (for HF NCORE is supported but not extensively tested yet)             |
|                                                                             |
 ----------------------------------------------------------------------------- 

 POTCAR:    PAW_PBE C 08Apr2002                   
   VRHFIN =C: s2p2                                                              
   LEXCH  = PE                                                                  
   EATOM  =   147.1560 eV,   10.8157 Ry                                         
                                                                                
   TITEL  = PAW_PBE C 08Apr2002                                                 
   LULTRA =        F    use ultrasoft PP ?                                      
   IUNSCR =        1    unscreen: 0-lin 1-nonlin 2-no                           
   RPACOR =    1.200    partial core radius                                     
   POMASS =   12.011; ZVAL   =    4.000    mass and valenz                      
   RCORE  =    1.500    outmost cutoff radius                                   
   RWIGS  =    1.630; RWIGS  =    0.863    wigner-seitz radius (au A)           
   ENMAX  =  400.000; ENMIN  =  300.000 eV                                      
   ICORE  =        2    local potential                                         
   LCOR   =        T    correct aug charges                                     
   LPAW   =        T    paw PP                                                  
   EAUG   =  644.873                                                            
   DEXC   =    0.000                                                            
   RMAX   =    1.529    core radius for proj-oper                               
   RAUG   =    1.300    factor for augmentation sphere                          
   RDEP   =    1.501    radius for radial grids                                 
   RDEPT  =    1.300    core radius for aug-charge                              
                                                                                
   Atomic configuration                                                         
    4 entries                                                                   
     n  l   j            E        occ.                                          
     1  0  0.50      -273.3789   2.0000                                         
     2  0  0.50       -13.7508   2.0000                                         
     2  1  0.50        -5.2854   2.0000                                         
     3  2  1.50        -5.4423   0.0000                                         
   Description                                                                  
     l       E           TYP  RCUT    TYP  RCUT                                 
     0    -13.7508458     23  1.200                                             
     0     -8.2022199     23  1.200                                             
     1     -5.2854383     23  1.500                                             
     1     34.0145650     23  1.500                                             
     2     -5.4423304      7  1.500                                             
  local pseudopotential read in
  partial core-charges read in
  partial kinetic energy density read in
  atomic valenz-charges read in
  non local Contribution for L=           0  read in
    real space projection operators read in
  non local Contribution for L=           0  read in
    real space projection operators read in
  non local Contribution for L=           1  read in
    real space projection operators read in
  non local Contribution for L=           1  read in
    real space projection operators read in
    PAW grid and wavefunctions read in
 
   number of l-projection  operators is LMAX  =           4
   number of lm-projection operators is LMMAX =           8
 
 POTCAR:    PAW_PBE Co 02Aug2007                  
   VRHFIN =Co: d8 s1                                                            
   LEXCH  = PE                                                                  
   EATOM  =   813.3670 eV,   59.7808 Ry                                         
                                                                                
   TITEL  = PAW_PBE Co 02Aug2007                                                
   LULTRA =        F    use ultrasoft PP ?                                      
   IUNSCR =        1    unscreen: 0-lin 1-nonlin 2-no                           
   RPACOR =    2.000    partial core radius                                     
   POMASS =   58.933; ZVAL   =    9.000    mass and valenz                      
   RCORE  =    2.300    outmost cutoff radius                                   
   RWIGS  =    2.460; RWIGS  =    1.302    wigner-seitz radius (au A)           
   ENMAX  =  267.968; ENMIN  =  200.976 eV                                      
   RCLOC  =    1.203    cutoff for local pot                                    
   LCOR   =        T    correct aug charges                                     
   LPAW   =        T    paw PP                                                  
   EAUG   =  477.818                                                            
   DEXC   =    0.000                                                            
   RMAX   =    2.360    core radius for proj-oper                               
   RAUG   =    1.300    factor for augmentation sphere                          
   RDEP   =    2.393    radius for radial grids                                 
   RDEPT  =    1.864    core radius for aug-charge                              
                                                                                
   Atomic configuration                                                         
    9 entries                                                                   
     n  l   j            E        occ.                                          
     1  0  0.50     -7587.6674   2.0000                                         
     2  0  0.50      -893.6084   2.0000                                         
     2  1  1.50      -764.5805   6.0000                                         
     3  0  0.50       -97.5973   2.0000                                         
     3  1  1.50       -60.9648   6.0000                                         
     3  2  2.50        -4.2382   8.0000                                         
     4  0  0.50        -4.3746   1.0000                                         
     4  1  1.50        -4.0817   0.0000                                         
     4  3  2.50        -1.3606   0.0000                                         
   Description                                                                  
     l       E           TYP  RCUT    TYP  RCUT                                 
     2     -4.2382362     23  2.300                                             
     2     -5.5988188     23  2.300                                             
     0     -4.3745797     23  2.300                                             
     0      5.7660125     23  2.300                                             
     1     -2.7211652     23  2.300                                             
     1     16.9860234     23  2.300                                             
  local pseudopotential read in
  partial core-charges read in
  partial kinetic energy density read in
  atomic valenz-charges read in
  non local Contribution for L=           2  read in
    real space projection operators read in
  non local Contribution for L=           2  read in
    real space projection operators read in
  non local Contribution for L=           0  read in
    real space projection operators read in
  non local Contribution for L=           0  read in
    real space projection operators read in
  non local Contribution for L=           1  read in
    real space projection operators read in
  non local Contribution for L=           1  read in
    real space projection operators read in
    PAW grid and wavefunctions read in
 
   number of l-projection  operators is LMAX  =           6
   number of lm-projection operators is LMMAX =          18
 
 POTCAR:    PAW_PBE H 15Jun2001                   
   VRHFIN =H: ultrasoft test                                                    
   LEXCH  = PE                                                                  
   EATOM  =    12.4884 eV,    0.9179 Ry                                         
                                                                                
   TITEL  = PAW_PBE H 15Jun2001                                                 
   LULTRA =        F    use ultrasoft PP ?                                      
   IUNSCR =        0    unscreen: 0-lin 1-nonlin 2-no                           
   RPACOR =    0.000    partial core radius                                     
   POMASS =    1.000; ZVAL   =    1.000    mass and valenz                      
   RCORE  =    1.100    outmost cutoff radius                                   
   RWIGS  =    0.700; RWIGS  =    0.370    wigner-seitz radius (au A)           
   ENMAX  =  250.000; ENMIN  =  200.000 eV                                      
   RCLOC  =    0.701    cutoff for local pot                                    
   LCOR   =        T    correct aug charges                                     
   LPAW   =        T    paw PP                                                  
   EAUG   =  400.000                                                            
   RMAX   =    1.123    core radius for proj-oper                               
   RAUG   =    1.200    factor for augmentation sphere                          
   RDEP   =    1.112    radius for radial grids                                 
   RDEPT  =    0.926    core radius for aug-charge                              
                                                                                
   Atomic configuration                                                         
    2 entries                                                                   
     n  l   j            E        occ.                                          
     1  0  0.50        -6.4927   1.0000                                         
     2  1  0.50        -3.4015   0.0000                                         
   Description                                                                  
     l       E           TYP  RCUT    TYP  RCUT                                 
     0     -6.4927494     23  1.100                                             
     0      6.8029130     23  1.100                                             
     1     -4.0817478     23  1.100                                             
  local pseudopotential read in
  atomic valenz-charges read in
  non local Contribution for L=           0  read in
    real space projection operators read in
  non local Contribution for L=           0  read in
    real space projection operators read in
  non local Contribution for L=           1  read in
    real space projection operators read in
    PAW grid and wavefunctions read in
 
   number of l-projection  operators is LMAX  =           3
   number of lm-projection operators is LMMAX =           5
 
 POTCAR:    PAW_PBE N 08Apr2002                   
   VRHFIN =N: s2p3                                                              
   LEXCH  = PE                                                                  
   EATOM  =   264.5486 eV,   19.4438 Ry                                         
                                                                                
   TITEL  = PAW_PBE N 08Apr2002                                                 
   LULTRA =        F    use ultrasoft PP ?                                      
   IUNSCR =        1    unscreen: 0-lin 1-nonlin 2-no                           
   RPACOR =    1.200    partial core radius                                     
   POMASS =   14.001; ZVAL   =    5.000    mass and valenz                      
   RCORE  =    1.500    outmost cutoff radius                                   
   RWIGS  =    1.400; RWIGS  =    0.741    wigner-seitz radius (au A)           
   ENMAX  =  400.000; ENMIN  =  300.000 eV                                      
   ICORE  =        2    local potential                                         
   LCOR   =        T    correct aug charges                                     
   LPAW   =        T    paw PP                                                  
   EAUG   =  627.112                                                            
   DEXC   =    0.000                                                            
   RMAX   =    1.529    core radius for proj-oper                               
   RAUG   =    1.300    factor for augmentation sphere                          
   RDEP   =    1.514    radius for radial grids                                 
   RDEPT  =    1.338    core radius for aug-charge                              
                                                                                
   Atomic configuration                                                         
    4 entries                                                                   
     n  l   j            E        occ.                                          
     1  0  0.50      -384.7179   2.0000                                         
     2  0  0.50       -18.5828   2.0000                                         
     2  1  0.50        -7.0898   3.0000                                         
     3  2  1.50        -6.8029   0.0000                                         
   Description                                                                  
     l       E           TYP  RCUT    TYP  RCUT                                 
     0    -18.5828119     23  1.200                                             
     0    -13.5018863     23  1.200                                             
     1     -7.0897853     23  1.500                                             
     1      9.5240782     23  1.500                                             
     2     -6.8029130      7  1.500                                             
  local pseudopotential read in
  partial core-charges read in
  partial kinetic energy density read in
  atomic valenz-charges read in
  non local Contribution for L=           0  read in
    real space projection operators read in
  non local Contribution for L=           0  read in
    real space projection operators read in
  non local Contribution for L=           1  read in
    real space projection operators read in
  non local Contribution for L=           1  read in
    real space projection operators read in
    PAW grid and wavefunctions read in
 
   number of l-projection  operators is LMAX  =           4
   number of lm-projection operators is LMMAX =           8
 
 POTCAR:    PAW_PBE O 08Apr2002                   
   VRHFIN =O: s2p4                                                              
   LEXCH  = PE                                                                  
   EATOM  =   432.3788 eV,   31.7789 Ry                                         
                                                                                
   TITEL  = PAW_PBE O 08Apr2002                                                 
   LULTRA =        F    use ultrasoft PP ?                                      
   IUNSCR =        1    unscreen: 0-lin 1-nonlin 2-no                           
   RPACOR =    1.200    partial core radius                                     
   POMASS =   16.000; ZVAL   =    6.000    mass and valenz                      
   RCORE  =    1.520    outmost cutoff radius                                   
   RWIGS  =    1.550; RWIGS  =    0.820    wigner-seitz radius (au A)           
   ENMAX  =  400.000; ENMIN  =  300.000 eV                                      
   ICORE  =        2    local potential                                         
   LCOR   =        T    correct aug charges                                     
   LPAW   =        T    paw PP                                                  
   EAUG   =  605.392                                                            
   DEXC   =    0.000                                                            
   RMAX   =    1.553    core radius for proj-oper                               
   RAUG   =    1.300    factor for augmentation sphere                          
   RDEP   =    1.550    radius for radial grids                                 
   RDEPT  =    1.329    core radius for aug-charge                              
                                                                                
   Atomic configuration                                                         
    4 entries                                                                   
     n  l   j            E        occ.                                          
     1  0  0.50      -514.6923   2.0000                                         
     2  0  0.50       -23.9615   2.0000                                         
     2  1  0.50        -9.0305   4.0000                                         
     3  2  1.50        -9.5241   0.0000                                         
   Description                                                                  
     l       E           TYP  RCUT    TYP  RCUT                                 
     0    -23.9615318     23  1.200                                             
     0     -9.5240782     23  1.200                                             
     1     -9.0304911     23  1.520                                             
     1      8.1634956     23  1.520                                             
     2     -9.5240782      7  1.500                                             
  local pseudopotential read in
  partial core-charges read in
  partial kinetic energy density read in
  kinetic energy density of atom read in
  atomic valenz-charges read in
  non local Contribution for L=           0  read in
    real space projection operators read in
  non local Contribution for L=           0  read in
    real space projection operators read in
  non local Contribution for L=           1  read in
    real space projection operators read in
  non local Contribution for L=           1  read in
    real space projection operators read in
    PAW grid and wavefunctions read in
 
   number of l-projection  operators is LMAX  =           4
   number of lm-projection operators is LMMAX =           8
 
 Optimization of the real space projectors (new method)

 maximal supplied QI-value         = 25.13
 optimisation between [QCUT,QGAM] = [ 12.32, 24.88] = [ 42.47,173.37] Ry 
 Optimized for a Real-space Cutoff    1.06 Angstroem

   l    n(q)    QCUT    max X(q) W(low)/X(q) W(high)/X(q)  e(spline) 
   0      8    12.315   115.676    0.34E-03    0.18E-03    0.23E-06
   0      8    12.315    87.132    0.34E-03    0.18E-03    0.22E-06
   1      7    12.315     4.429    0.45E-03    0.12E-03    0.18E-06
   1      7    12.315     2.733    0.35E-03    0.97E-04    0.15E-06
 Optimization of the real space projectors (new method)

 maximal supplied QI-value         = 16.25
 optimisation between [QCUT,QGAM] = [ 12.51, 25.03] = [ 43.85,175.40] Ry 
 Optimized for a Real-space Cutoff    1.31 Angstroem

   l    n(q)    QCUT    max X(q) W(low)/X(q) W(high)/X(q)  e(spline) 
   2      9    12.514    65.824    0.30E-03    0.46E-03    0.43E-06
   2      9    12.514    61.429    0.31E-03    0.46E-03    0.44E-06
   0     10    12.514    56.174    0.90E-04    0.33E-03    0.30E-06
   0     10    12.514    31.263    0.81E-04    0.30E-03    0.28E-06
   1      9    12.514    19.828    0.38E-03    0.65E-04    0.24E-06
   1      9    12.514    15.139    0.32E-03    0.60E-04    0.20E-06
 Optimization of the real space projectors (new method)

 maximal supplied QI-value         = 34.20
 optimisation between [QCUT,QGAM] = [ 12.31, 24.97] = [ 42.46,174.58] Ry 
 Optimized for a Real-space Cutoff    1.00 Angstroem

   l    n(q)    QCUT    max X(q) W(low)/X(q) W(high)/X(q)  e(spline) 
   0      7    12.313    19.460    0.14E-03    0.42E-03    0.16E-06
   0      7    12.313    12.209    0.12E-03    0.40E-03    0.16E-06
   1      7    12.313     4.655    0.33E-03    0.59E-03    0.89E-07
 Optimization of the real space projectors (new method)

 maximal supplied QI-value         = 25.13
 optimisation between [QCUT,QGAM] = [ 12.32, 24.88] = [ 42.47,173.37] Ry 
 Optimized for a Real-space Cutoff    1.20 Angstroem

   l    n(q)    QCUT    max X(q) W(low)/X(q) W(high)/X(q)  e(spline) 
   0      9    12.315    79.467    0.14E-03    0.22E-04    0.37E-06
   0      9    12.315    66.151    0.14E-03    0.23E-04    0.36E-06
   1      8    12.315    22.077    0.30E-03    0.54E-03    0.45E-06
   1      8    12.315    15.894    0.30E-03    0.55E-03    0.45E-06
 Optimization of the real space projectors (new method)

 maximal supplied QI-value         = 24.76
 optimisation between [QCUT,QGAM] = [ 12.38, 25.00] = [ 42.90,175.06] Ry 
 Optimized for a Real-space Cutoff    1.13 Angstroem

   l    n(q)    QCUT    max X(q) W(low)/X(q) W(high)/X(q)  e(spline) 
   0      8    12.378    20.381    0.16E-03    0.54E-05    0.27E-06
   0      8    12.378    15.268    0.17E-03    0.61E-05    0.29E-06
   1      8    12.378     5.964    0.38E-03    0.23E-03    0.28E-06
   1      8    12.378     5.382    0.33E-03    0.20E-03    0.25E-06
  PAW_PBE C 08Apr2002                   :
 energy of atom  1       EATOM= -147.1560
 kinetic energy error for atom=    0.0057 (will be added to EATOM!!)
  PAW_PBE Co 02Aug2007                  :
 energy of atom  2       EATOM= -813.3670
 kinetic energy error for atom=    0.0018 (will be added to EATOM!!)
  PAW_PBE H 15Jun2001                   :
 energy of atom  3       EATOM=  -12.4884
 kinetic energy error for atom=    0.0004 (will be added to EATOM!!)
  PAW_PBE N 08Apr2002                   :
 energy of atom  4       EATOM= -264.5486
 kinetic energy error for atom=    0.0103 (will be added to EATOM!!)
  PAW_PBE O 08Apr2002                   :
 energy of atom  5       EATOM= -432.3788
 kinetic energy error for atom=    0.0168 (will be added to EATOM!!)
 
 
 POSCAR: Co_A                                    
  positions in direct lattice
  velocities in cartesian coordinates
 exchange correlation table for  LEXCH =        8
   RHO(1)=    0.500       N(1)  =     2000
   RHO(2)=  100.500       N(2)  =     4000
 


--------------------------------------------------------------------------------------------------------


 ion  position               nearest neighbor table
   1  0.927  0.967  0.132- 107 1.08 117 1.35  65 1.40
   2  0.842  0.958  0.424- 112 1.09 118 1.35  65 1.40
   3  0.927  0.803  0.927- 116 1.08 119 1.35  66 1.40
   4  0.572  0.467  0.624- 110 1.08 120 1.35  67 1.40
   5  0.657  0.311  0.126- 111 1.09 121 1.35  68 1.40
   6  0.157  0.812  0.134- 115 1.09 122 1.35  69 1.40
   7  0.657  0.458  0.917- 101 1.09 123 1.35  67 1.40
   8  0.572  0.303  0.418- 113 1.08 124 1.35  68 1.40
   9  0.342  0.458  0.416- 114 1.09 125 1.35  70 1.40
  10  0.072  0.803  0.427- 104 1.08 126 1.35  69 1.40
  11  0.157  0.958  0.924- 105 1.09 127 1.35  71 1.40
  12  0.342  0.311  0.625- 102 1.09 128 1.35  72 1.40
  13  0.842  0.811  0.633- 108 1.09 129 1.35  66 1.40
  14  0.072  0.967  0.631- 109 1.08 130 1.35  71 1.40
  15  0.428  0.303  0.918- 106 1.08 131 1.35  72 1.40
  16  0.428  0.467  0.124- 103 1.08 132 1.35  70 1.40
  17  0.765  0.037  0.112- 141 1.23 133 1.42  33 1.48
  18  0.860  0.060  0.450- 142 1.23 133 1.42  34 1.48
  19  0.860  0.710  0.606- 143 1.23 134 1.42  35 1.48
  20  0.638  0.559  0.945- 144 1.23 135 1.42  36 1.48
  21  0.639  0.210  0.101- 145 1.23 136 1.42  37 1.48
  22  0.234  0.732  0.444- 146 1.23 137 1.42  38 1.48
  23  0.733  0.537  0.607- 147 1.23 135 1.42  39 1.48
  24  0.733  0.232  0.440- 148 1.23 136 1.42  40 1.48
  25  0.267  0.538  0.106- 149 1.23 138 1.42  41 1.48
  26  0.139  0.710  0.106- 150 1.23 137 1.42  42 1.48
  27  0.140  0.059  0.950- 151 1.23 139 1.42  43 1.48
  28  0.361  0.210  0.601- 152 1.23 140 1.42  44 1.48
  29  0.766  0.732  0.944- 153 1.23 134 1.42  45 1.48
  30  0.234  0.037  0.612- 154 1.23 139 1.42  46 1.48
  31  0.267  0.232  0.940- 155 1.23 140 1.42  47 1.48
  32  0.362  0.559  0.445- 156 1.23 138 1.42  48 1.48
  33  0.733  0.082  0.113-  49 1.39  73 1.42  17 1.48
  34  0.826  0.104  0.444-  50 1.39  73 1.42  18 1.48
  35  0.827  0.666  0.610-  51 1.39  74 1.42  19 1.48
  36  0.671  0.603  0.941-  52 1.39  75 1.42  20 1.48
  37  0.672  0.166  0.108-  53 1.39  76 1.42  21 1.48
  38  0.266  0.688  0.441-  54 1.39  77 1.42  22 1.48
  39  0.765  0.582  0.611-  55 1.39  75 1.42  23 1.48
  40  0.765  0.188  0.438-  56 1.39  76 1.42  24 1.48
  41  0.235  0.582  0.110-  57 1.39  78 1.42  25 1.48
  42  0.173  0.666  0.109-  58 1.39  77 1.42  26 1.48
  43  0.173  0.103  0.944-  59 1.39  79 1.42  27 1.48
  44  0.328  0.166  0.608-  60 1.39  80 1.42  28 1.48
  45  0.733  0.688  0.941-  61 1.39  74 1.42  29 1.48
  46  0.267  0.081  0.614-  62 1.39  79 1.42  30 1.48
  47  0.235  0.188  0.938-  63 1.39  80 1.42  31 1.48
  48  0.328  0.603  0.441-  64 1.39  78 1.42  32 1.48
  49  0.672  0.092  0.952-  88 1.09  33 1.39  53 1.40
  50  0.857  0.135  0.603-  99 1.09  34 1.39  56 1.40
  51  0.857  0.635  0.450-  93 1.09  35 1.39  55 1.40
  52  0.641  0.635  0.101-  90 1.09  36 1.39  61 1.40
  53  0.641  0.134  0.949-  98 1.09  37 1.39  49 1.40
  54  0.327  0.677  0.601-  96 1.09  38 1.39  64 1.40
  55  0.826  0.593  0.450-  86 1.09  39 1.39  51 1.40
  56  0.826  0.177  0.600-  87 1.09  40 1.39  50 1.40
  57  0.174  0.593  0.949-  95 1.09  41 1.39  58 1.40
  58  0.143  0.635  0.949-  91 1.09  42 1.39  57 1.40
  59  0.143  0.135  0.103-  92 1.09  43 1.39  63 1.40
  60  0.358  0.134  0.450-  85 1.09  44 1.39  62 1.40
  61  0.672  0.677  0.101-  89 1.09  45 1.39  52 1.40
  62  0.328  0.092  0.452- 100 1.09  46 1.39  60 1.40
  63  0.174  0.177  0.100-  94 1.09  47 1.39  59 1.40
  64  0.358  0.635  0.601-  97 1.09  48 1.39  54 1.40
  65  0.860  0.987  0.281-   1 1.40   2 1.40 133 1.42
  66  0.860  0.783  0.776-   3 1.40  13 1.40 134 1.42
  67  0.638  0.487  0.774-   4 1.40   7 1.40 135 1.42
  68  0.639  0.283  0.269-   8 1.40   5 1.40 136 1.42
  69  0.139  0.783  0.277-  10 1.40   6 1.40 137 1.42
  70  0.361  0.487  0.274-  16 1.40   9 1.40 138 1.42
  71  0.139  0.987  0.781-  14 1.40  11 1.40 139 1.42
  72  0.361  0.282  0.769-  15 1.40  12 1.40 140 1.42
  73  0.764  0.113  0.277-  33 1.42  34 1.42  76 1.43
  74  0.765  0.656  0.775-  45 1.42  35 1.42  75 1.43
  75  0.734  0.613  0.776-  39 1.42  36 1.42  74 1.43
  76  0.734  0.156  0.274-  40 1.42  37 1.42  73 1.43
  77  0.235  0.656  0.275-  38 1.42  42 1.42  78 1.43
  78  0.266  0.613  0.275-  41 1.42  48 1.42  77 1.43
  79  0.235  0.113  0.778-  46 1.42  43 1.42  80 1.43
  80  0.266  0.156  0.774-  47 1.42  44 1.42  79 1.43
  81  0.033  0.885  0.029- 117 1.96 119 1.96 122 1.96 127 1.96
  82  0.965  0.885  0.529- 126 1.96 130 1.96 129 1.96 118 1.96
  83  0.466  0.385  0.521- 124 1.96 120 1.96 128 1.96 125 1.96
  84  0.534  0.385  0.021- 131 1.96 132 1.96 121 1.96 123 1.96
  85  0.406  0.142  0.323-  60 1.09
  86  0.849  0.568  0.325-  55 1.09
  87  0.849  0.203  0.724-  56 1.09
  88  0.649  0.067  0.828-  49 1.09
  89  0.649  0.702  0.226-  61 1.09
  90  0.593  0.626  0.227-  52 1.09
  91  0.095  0.643  0.823-  58 1.09
  92  0.096  0.127  0.229-  59 1.09
  93  0.905  0.643  0.324-  51 1.09
  94  0.151  0.202  0.224-  63 1.09
  95  0.151  0.568  0.823-  57 1.09
  96  0.350  0.702  0.727-  54 1.09
  97  0.406  0.626  0.727-  64 1.09
  98  0.594  0.142  0.823-  53 1.09
  99  0.904  0.127  0.729-  50 1.09
 100  0.351  0.067  0.328-  62 1.09
 101  0.702  0.461  0.061-   7 1.09
 102  0.298  0.307  0.481-  12 1.09
 103  0.460  0.478  0.988-  16 1.08
 104  0.040  0.791  0.563-  10 1.08
 105  0.202  0.962  0.068-  11 1.09
 106  0.461  0.291  0.055-  15 1.08
 107  0.960  0.978  0.995-   1 1.08
 108  0.798  0.808  0.489-  13 1.09
 109  0.040  0.978  0.495-  14 1.08
 110  0.539  0.478  0.488-   4 1.08
 111  0.702  0.308  0.982-   5 1.09
 112  0.797  0.962  0.568-   2 1.09
 113  0.539  0.291  0.555-   8 1.08
 114  0.298  0.461  0.560-   9 1.09
 115  0.202  0.808  0.990-   6 1.09
 116  0.960  0.791  0.063-   3 1.08
 117  0.947  0.928  0.183-   1 1.35 118 1.37  81 1.96
 118  0.895  0.923  0.361-   2 1.35 117 1.37  82 1.96
 119  0.947  0.841  0.875-   3 1.35 129 1.37  81 1.96
 120  0.552  0.428  0.675-   4 1.35 123 1.37  83 1.96
 121  0.604  0.347  0.188-   5 1.35 124 1.37  84 1.96
 122  0.104  0.847  0.197-   6 1.35 126 1.37  81 1.96
 123  0.604  0.422  0.854-   7 1.35 120 1.37  84 1.96
 124  0.552  0.341  0.367-   8 1.35 121 1.37  83 1.96
 125  0.395  0.422  0.354-   9 1.35 132 1.37  83 1.96
 126  0.052  0.841  0.376-  10 1.35 122 1.37  82 1.96
 127  0.104  0.923  0.862-  11 1.35 130 1.37  81 1.96
 128  0.395  0.347  0.688-  12 1.35 131 1.37  83 1.96
 129  0.895  0.847  0.696-  13 1.35 119 1.37  82 1.96
 130  0.051  0.928  0.683-  14 1.35 127 1.37  82 1.96
 131  0.448  0.341  0.867-  15 1.35 128 1.37  84 1.96
 132  0.448  0.428  0.175-  16 1.35 125 1.37  84 1.96
 133  0.824  0.029  0.286-  18 1.42  17 1.42  65 1.42
 134  0.825  0.741  0.771-  19 1.42  29 1.42  66 1.42
 135  0.674  0.529  0.780-  20 1.42  23 1.42  67 1.42
 136  0.675  0.241  0.265-  21 1.42  24 1.42  68 1.42
 137  0.175  0.741  0.271-  26 1.42  22 1.42  69 1.42
 138  0.326  0.529  0.280-  32 1.42  25 1.42  70 1.42
 139  0.175  0.029  0.786-  27 1.42  30 1.42  71 1.42
 140  0.326  0.240  0.765-  28 1.42  31 1.42  72 1.42
 141  0.742  0.009  0.969-  17 1.23
 142  0.916  0.050  0.589-  18 1.23
 143  0.916  0.720  0.468-  19 1.23
 144  0.582  0.549  0.083-  20 1.23
 145  0.583  0.219  0.962-  21 1.23
 146  0.256  0.760  0.589-  22 1.23
 147  0.755  0.509  0.463-  23 1.23
 148  0.756  0.260  0.583-  24 1.23
 149  0.245  0.510  0.962-  25 1.23
 150  0.083  0.720  0.968-  26 1.23
 151  0.084  0.050  0.089-  27 1.23
 152  0.417  0.219  0.462-  28 1.23
 153  0.743  0.760  0.088-  29 1.23
 154  0.257  0.009  0.469-  30 1.23
 155  0.244  0.260  0.083-  31 1.23
 156  0.418  0.549  0.583-  32 1.23
 

IMPORTANT INFORMATION: All symmetrisations will be switched off!
NOSYMM: (Re-)initialisation of all symmetry stuff for point group C_1.

 
 

Automatic generation of k-mesh.
 generate k-points for:    2    1    4
Space group operators:
 irot       det(A)        alpha          n_x          n_y          n_z        tau_x        tau_y        tau_z
    1     1.000000     0.000000     1.000000     0.000000     0.000000     0.000000     0.000000     0.000000
 
 Subroutine IBZKPT returns following result:
 ===========================================
 
 Found      6 irreducible k-points:
 
 Following reciprocal coordinates:
            Coordinates               Weight
  0.000000  0.000000  0.000000      1.000000
  0.500000  0.000000 -0.000000      1.000000
 -0.000000  0.000000  0.250000      2.000000
  0.500000  0.000000  0.250000      2.000000
 -0.000000  0.000000  0.500000      1.000000
  0.500000  0.000000  0.500000      1.000000
 
 Following cartesian coordinates:
            Coordinates               Weight
  0.000000  0.000000  0.000000      1.000000
  0.037147  0.000003  0.000021      1.000000
  0.000013  0.002688  0.039619      2.000000
  0.037160  0.002691  0.039640      2.000000
  0.000026  0.005376  0.079237      1.000000
  0.037173  0.005379  0.079258      1.000000
 


--------------------------------------------------------------------------------------------------------




 Dimension of arrays:
   k-points           NKPTS =      6   k-points in BZ     NKDIM =      6   number of bands    NBANDS=    384
   number of dos      NEDOS =    301   number of ions     NIONS =    156
   non local maximal  LDIM  =      6   non local SUM 2l+1 LMDIM =     18
   total plane-waves  NPLWV = 645120
   max r-space proj   IRMAX =   2275   max aug-charges    IRDMAX=   9589
   dimension x,y,z NGX =    84 NGY =  192 NGZ =   40
   dimension x,y,z NGXF=   168 NGYF=  384 NGZF=   80
   support grid    NGXF=   168 NGYF=  384 NGZF=   80
   ions per type =              80   4  32  24  16
   NGX,Y,Z   is equivalent  to a cutoff of  10.37,  9.98, 10.46 a.u.
   NGXF,Y,Z  is equivalent  to a cutoff of  20.75, 19.97, 20.92 a.u.

 SYSTEM =  flex_MOF                                
 POSCAR =  Co_A                                    

 Startparameter for this run:
   NWRITE =      2    write-flag & timer
   PREC   = normal    normal or accurate (medium, high low for compatibility)
   ISTART =      0    job   : 0-new  1-cont  2-samecut
   ICHARG =      2    charge: 1-file 2-atom 10-const
   ISPIN  =      2    spin polarized calculation?
   LNONCOLLINEAR =      F non collinear calculations
   LSORBIT =      F    spin-orbit coupling
   INIWAV =      1    electr: 0-lowe 1-rand  2-diag
   LASPH  =      F    aspherical Exc in radial PAW
   METAGGA=      F    non-selfconsistent MetaGGA calc.

 Electronic Relaxation 1
   ENCUT  =  600.0 eV  44.10 Ry    6.64 a.u.  26.88 63.86 12.70*2*pi/ulx,y,z
   ENINI  =  600.0     initial cutoff
   ENAUG  =  644.9 eV  augmentation charge cutoff
   NELM   =     80;   NELMIN=  8; NELMDL= -5     # of ELM steps 
   EDIFF  = 0.1E-05   stopping-criterion for ELM
   LREAL  =      T    real-space projection
   NLSPLINE    = F    spline interpolate recip. space projectors
   LCOMPAT=      F    compatible to vasp.4.4
   GGA_COMPAT  = T    GGA compatible to vasp.4.4-vasp.4.6
   LMAXPAW     = -100 max onsite density
   LMAXMIX     =    2 max onsite mixed and CHGCAR
   VOSKOWN=      0    Vosko Wilk Nusair interpolation
   ROPT   =   -0.00050  -0.00050  -0.00050  -0.00050
   ROPT   =   -0.00050
 Ionic relaxation
   EDIFFG = -.1E-01   stopping-criterion for IOM
   NSW    =    500    number of steps for IOM
   NBLOCK =      1;   KBLOCK =    500    inner block; outer block 
   IBRION =      2    ionic relax: 0-MD 1-quasi-New 2-CG
   NFREE  =      1    steps in history (QN), initial steepest desc. (CG)
   ISIF   =      4    stress and relaxation
   IWAVPR =     11    prediction:  0-non 1-charg 2-wave 3-comb
   ISYM   =      0    0-nonsym 1-usesym 2-fastsym
   LCORR  =      T    Harris-Foulkes like correction to forces

   POTIM  = 0.5000    time-step for ionic-motion
   TEIN   =    0.0    initial temperature
   TEBEG  =    0.0;   TEEND  =   0.0 temperature during run
   SMASS  =  -3.00    Nose mass-parameter (am)
   estimated Nose-frequenzy (Omega)   =  0.10E-29 period in steps =****** mass=  -0.414E-26a.u.
   SCALEE = 1.0000    scale energy and forces
   NPACO  =    256;   APACO  = 16.0  distance and # of slots for P.C.
   PSTRESS=    0.0 pullay stress

  Mass of Ions in am
   POMASS =  12.01 58.93  1.00 14.00 16.00
  Ionic Valenz
   ZVAL   =   4.00  9.00  1.00  5.00  6.00
  Atomic Wigner-Seitz radii
   RWIGS  =  -1.00 -1.00 -1.00 -1.00 -1.00
  virtual crystal weights 
   VCA    =   1.00  1.00  1.00  1.00  1.00
   NELECT =     604.0000    total number of electrons
   NUPDOWN=      -1.0000    fix difference up-down

 DOS related values:
   EMIN   =  10.00;   EMAX   =-10.00  energy-range for DOS
   EFERMI =   0.00
   ISMEAR =     0;   SIGMA  =   0.05  broadening in eV -4-tet -1-fermi 0-gaus

 Electronic relaxation 2 (details)
   IALGO  =     38    algorithm
   LDIAG  =      T    sub-space diagonalisation (order eigenvalues)
   LSUBROT=      F    optimize rotation matrix (better conditioning)
   TURBO    =      0    0=normal 1=particle mesh
   IRESTART =      0    0=no restart 2=restart with 2 vectors
   NREBOOT  =      0    no. of reboots
   NMIN     =      0    reboot dimension
   EREF     =   0.00    reference energy to select bands
   IMIX   =      4    mixing-type and parameters
     AMIX     =   0.40;   BMIX     =  1.00
     AMIX_MAG =   1.60;   BMIX_MAG =  1.00
     AMIN     =   0.10
     WC   =   100.;   INIMIX=   1;  MIXPRE=   1;  MAXMIX= -45

 Intra band minimization:
   WEIMIN = 0.0010     energy-eigenvalue tresh-hold
   EBREAK =  0.65E-09  absolut break condition
   DEPER  =   0.30     relativ break condition  

   TIME   =   0.40     timestep for ELM

  volume/ion in A,a.u.               =      17.37       117.20
  Fermi-wavevector in a.u.,A,eV,Ry     =   0.992652  1.875840 13.406609  0.985358
  Thomas-Fermi vector in A             =   2.124479
 
 Write flags
   LWAVE        =      T    write WAVECAR
   LDOWNSAMPLE  =      F    k-point downsampling of WAVECAR
   LCHARG       =      T    write CHGCAR
   LVTOT        =      F    write LOCPOT, total local potential
   LVHAR        =      F    write LOCPOT, Hartree potential only
   LELF         =      F    write electronic localiz. function (ELF)
   LORBIT       =     11    0 simple, 1 ext, 2 COOP (PROOUT), +10 PAW based schemes


 Dipole corrections
   LMONO  =      F    monopole corrections only (constant potential shift)
   LDIPOL =      F    correct potential (dipole corrections)
   IDIPOL =      0    1-x, 2-y, 3-z, 4-all directions 
   EPSILON=  1.0000000 bulk dielectric constant

 Exchange correlation treatment:
   GGA     =    PE    GGA type
   LEXCH   =     8    internal setting for exchange type
   VOSKOWN=      0    Vosko Wilk Nusair interpolation
   LHFCALC =     F    Hartree Fock is set to
   LHFONE  =     F    Hartree Fock one center treatment
   AEXX    =    0.0000 exact exchange contribution

 Linear response parameters
   LEPSILON=     F    determine dielectric tensor
   LRPA    =     F    only Hartree local field effects (RPA)
   LNABLA  =     F    use nabla operator in PAW spheres
   LVEL    =     F    velocity operator in full k-point grid
   LINTERFAST=   F  fast interpolation
   KINTER  =     0    interpolate to denser k-point grid
   CSHIFT  =0.1000    complex shift for real part using Kramers Kronig
   OMEGAMAX=  -1.0    maximum frequency
   DEG_THRESHOLD= 0.2000000E-02 threshold for treating states as degnerate
   RTIME   =   -0.100 relaxation time in fs
  (WPLASMAI=    0.000 imaginary part of plasma frequency in eV, 0.658/RTIME)
   DFIELD  = 0.0000000 0.0000000 0.0000000 field for delta impulse in time
 
 Orbital magnetization related:
   ORBITALMAG=     F  switch on orbital magnetization
   LCHIMAG   =     F  perturbation theory with respect to B field
   DQ        =  0.001000  dq finite difference perturbation B field
   LLRAUG    =     F  two centre corrections for induced B field



--------------------------------------------------------------------------------------------------------


 conjugate gradient relaxation of ions
 charge density and potential will be updated during run
 spin polarized calculation
 Variant of blocked Davidson
 Davidson routine will perform the subspace rotation
 perform sub-space diagonalisation
    after iterative eigenvector-optimisation
 modified Broyden-mixing scheme, WC =      100.0
 initial mixing is a Kerker type mixing with AMIX =  0.4000 and BMIX =      1.0000
 Hartree-type preconditioning will be used
 using additional bands           82
 real space projection scheme for non local part
 use partial core corrections
 calculate Harris-corrections to forces 
   (improved forces if not selfconsistent)
 use gradient corrections 
 use of overlap-Matrix (Vanderbilt PP)
 Gauss-broadening in eV      SIGMA  =   0.05


--------------------------------------------------------------------------------------------------------


  energy-cutoff  :      600.00
  volume of cell :     2709.38
      direct lattice vectors                 reciprocal lattice vectors
    13.460095256  0.000184069 -0.004437575     0.074293693  0.000005896  0.000042847
    -0.001283339 31.899254265 -2.164320511     0.000000319  0.031503019  0.002274527
    -0.003620828 -0.457839549  6.341244379     0.000052099  0.010752252  0.158474100

  length of vectors
    13.460095989 31.972593069  6.357751996     0.074293706  0.031585023  0.158838452


 
 k-points in units of 2pi/SCALE and weight: read from INCAR                         
   0.00000000  0.00000000  0.00000000       0.125
   0.03714685  0.00000295  0.00002142       0.125
   0.00001302  0.00268806  0.03961852       0.250
   0.03715987  0.00269101  0.03963995       0.250
   0.00002605  0.00537613  0.07923705       0.125
   0.03717290  0.00537907  0.07925847       0.125
 
 k-points in reciprocal lattice and weights: read from INCAR                         
   0.00000000  0.00000000  0.00000000       0.125
   0.50000000  0.00000000 -0.00000000       0.125
  -0.00000000  0.00000000  0.25000000       0.250
   0.50000000  0.00000000  0.25000000       0.250
  -0.00000000  0.00000000  0.50000000       0.125
   0.50000000  0.00000000  0.50000000       0.125
 
 position of ions in fractional coordinates (direct lattice) 
   0.92695831  0.96678582  0.13159024
   0.84189791  0.95810677  0.42388099
   0.92675987  0.80291483  0.92657855
   0.57178771  0.46657347  0.62449702
   0.65738046  0.31127699  0.12614558
   0.15715390  0.81157847  0.13401198
   0.65701428  0.45787211  0.91681801
   0.57219834  0.30271069  0.41842826
   0.34249447  0.45788448  0.41644004
   0.07235174  0.80285935  0.42653582
   0.15709486  0.95803011  0.92429487
   0.34245557  0.31106780  0.62543485
   0.84204962  0.81147832  0.63340838
   0.07223985  0.96670788  0.63143666
   0.42769090  0.30262082  0.91812757
   0.42756430  0.46654940  0.12419382
   0.76520673  0.03719014  0.11173744
   0.85994620  0.05958264  0.44967019
   0.86049451  0.71018975  0.60621587
   0.63786450  0.55927011  0.94485260
   0.63860579  0.20982321  0.10147517
   0.23375752  0.73208002  0.44433160
   0.73262379  0.53745473  0.60681650
   0.73313540  0.23220652  0.43965379
   0.26718043  0.53752067  0.10598216
   0.13910719  0.71025575  0.10578540
   0.13985022  0.05948768  0.94989672
   0.36137046  0.20960298  0.60147791
   0.76563293  0.73207359  0.94410445
   0.23430130  0.03701698  0.61206727
   0.26706327  0.23205416  0.93951695
   0.36169089  0.55927561  0.44473296
   0.73303786  0.08160881  0.11324498
   0.82644274  0.10360788  0.44389217
   0.82682127  0.66611502  0.60973558
   0.67142120  0.60336467  0.94128975
   0.67176200  0.16576395  0.10771304
   0.26614030  0.68761432  0.44050588
   0.76485394  0.58192110  0.61053594
   0.76508175  0.18776668  0.43844223
   0.23501153  0.58199516  0.10965157
   0.17293533  0.66618393  0.10904420
   0.17349128  0.10349782  0.94405498
   0.32819543  0.16554714  0.60791612
   0.73341386  0.68759398  0.94053710
   0.26666811  0.08141774  0.61360433
   0.23505106  0.18762460  0.93842711
   0.32817650  0.60338076  0.44115759
   0.67206939  0.09200437  0.95169431
   0.85674741  0.13544992  0.60252690
   0.85695729  0.63452693  0.44979593
   0.64121881  0.63496856  0.10111885
   0.64139102  0.13392286  0.94913472
   0.32723833  0.67690831  0.60119223
   0.82592680  0.59258831  0.44999144
   0.82600840  0.17736507  0.60004058
   0.17405791  0.59269071  0.94877208
   0.14295037  0.63462689  0.94868130
   0.14335678  0.13536848  0.10258708
   0.35847017  0.13366799  0.44957888
   0.67226910  0.67691296  0.10097271
   0.32766379  0.09176701  0.45219163
   0.17418669  0.17726806  0.10000821
   0.35830568  0.63496236  0.60129170
   0.86033671  0.98678083  0.28112517
   0.86036086  0.78284774  0.77648824
   0.63827959  0.48660611  0.77447132
   0.63880062  0.28266003  0.26910571
   0.13888955  0.78287920  0.27674123
   0.36123542  0.48661720  0.27413830
   0.13889673  0.98668534  0.78124628
   0.36116916  0.28248629  0.76859755
   0.76447785  0.11339175  0.27736265
   0.76472091  0.65605417  0.77523332
   0.73354519  0.61344693  0.77587289
   0.73363358  0.15597219  0.27436252
   0.23497923  0.65609955  0.27480808
   0.26617685  0.61349448  0.27539190
   0.23539939  0.11323781  0.77757686
   0.26634627  0.15580263  0.77447223
   0.03348309  0.88481839  0.02927513
   0.96542109  0.88476579  0.52861195
   0.46563889  0.38452608  0.52097326
   0.53377779  0.38454302  0.02109329
   0.40608710  0.14210466  0.32335847
   0.84875957  0.56761033  0.32488596
   0.84897980  0.20253418  0.72412863
   0.64910504  0.06683775  0.82758220
   0.64937967  0.70188404  0.22606471
   0.59342813  0.62628697  0.22650212
   0.09522422  0.64333215  0.82309361
   0.09571140  0.12693956  0.22877322
   0.90473269  0.64322442  0.32443096
   0.15134471  0.20246070  0.22401574
   0.15132799  0.56773532  0.82336371
   0.35002972  0.70186217  0.72657076
   0.40604185  0.62626598  0.72688987
   0.59377070  0.14240846  0.82284804
   0.90446667  0.12698665  0.72870178
   0.35052058  0.06657756  0.32817939
   0.70164296  0.46138488  0.06067851
   0.29787552  0.30743767  0.48147942
   0.46049433  0.47824842  0.98817518
   0.03958305  0.79117937  0.56278853
   0.20160848  0.96153446  0.06832404
   0.46064408  0.29103874  0.05455200
   0.95981479  0.97844913  0.99537058
   0.79760638  0.80789103  0.48927100
   0.03955743  0.97836071  0.49489092
   0.53878911  0.47829647  0.48849678
   0.70195321  0.30770038  0.98234982
   0.79728781  0.96162770  0.56759297
   0.53931931  0.29108638  0.55468830
   0.29796494  0.46141112  0.56027488
   0.20165510  0.80808944  0.99014652
   0.95950349  0.79129663  0.06313888
   0.94748184  0.92824315  0.18268448
   0.89507521  0.92264467  0.36147152
   0.94732795  0.84144459  0.87542794
   0.55155426  0.42796541  0.67502130
   0.60426630  0.34677326  0.18836038
   0.10394742  0.84702223  0.19660319
   0.60406784  0.42235601  0.85387088
   0.55178912  0.34123834  0.36715601
   0.39530520  0.42234196  0.35351305
   0.05168171  0.84139780  0.37553719
   0.10373872  0.92260730  0.86179091
   0.39541431  0.34662124  0.68775652
   0.89512219  0.84697608  0.69606954
   0.05145039  0.92820007  0.68264752
   0.44792064  0.34115669  0.86681994
   0.44772734  0.42793179  0.17470223
   0.82430498  0.02874638  0.28553966
   0.82465560  0.74081141  0.77100355
   0.67382453  0.52866923  0.78014227
   0.67453891  0.24067111  0.26518423
   0.17475294  0.74085400  0.27105372
   0.32579519  0.52869491  0.27970644
   0.17517036  0.02862020  0.78569988
   0.32550516  0.24048738  0.76494220
   0.74232727  0.00893812  0.96880365
   0.91569771  0.05002246  0.58854683
   0.91646890  0.71996885  0.46843879
   0.58189844  0.54946551  0.08259013
   0.58297317  0.21941197  0.96244861
   0.25647700  0.76009064  0.58858255
   0.75530825  0.50944734  0.46262198
   0.75587197  0.26045665  0.58273312
   0.24454946  0.50953204  0.96155097
   0.08314288  0.72004127  0.96781786
   0.08420527  0.04997751  0.08887845
   0.41695391  0.21915386  0.46246111
   0.74272994  0.76012527  0.08791291
   0.25704914  0.00874629  0.46922089
   0.24448571  0.26031892  0.08253203
   0.41754284  0.54944269  0.58278729
 
 position of ions in cartesian coordinates  (Angst):
  12.47523004 30.77967002 -1.26210193
  11.32926167 30.36897698  0.61054684
  12.46989067 25.18833055  4.13378344
   7.69345712 14.59753165  2.94773630
   8.84754739  9.87187051  0.12329957
   2.11377973 25.82742087 -0.90741058
   8.83956760 14.18614429  4.81986951
   7.69994056  9.46477762  1.99565371
   4.60791275 14.41557378  1.64821943
   0.97128652 25.41534297  0.96680182
   2.10993559 30.13729629  3.78699830
   4.60682085  9.63654519  3.29126514
  11.33073327 25.59570887  2.25656150
   0.96882826 30.54817697  1.91150790
   5.75304757  9.23310210  5.16520495
   5.75400773 14.82579572 -0.22411642
  10.29930312  1.13532073  0.62466735
  11.57325319  1.69492335  2.71869657
  11.57923170 22.37713210  2.30326621
   8.58157804 17.40782593  4.77827089
   8.59505809  6.64686222  0.18652031
   3.14385009 23.14941717  1.23212216
   9.85829910 16.86671521  2.68149633
   9.86618243  7.20605900  2.28212947
   3.59520047 17.09803491 -0.49249386
   1.87110154 22.60822172 -0.86702731
   1.87888151  1.46273808  5.89415624
   4.86163399  6.41086488  3.35886679
  10.30113420 22.92049428  4.39895756
   3.15145408  0.90062871  3.80011179
   3.59099742  6.97225577  5.45428190
   4.86606585 17.63692520  1.60810370
   9.86624459  2.55154707  0.53823356
  11.12225784  3.10193488  2.58692065
  11.12603041 20.96956357  2.42112682
   9.03321068 18.81604681  4.66009435
   9.04137773  5.23855488  0.32128738
   3.57979636 21.73275185  1.30395664
  10.29204941 18.28346236  2.60869974
  10.29624474  5.78902158  2.37048694
   3.16213366 18.51505188 -0.56533954
   2.32647629 21.20087776 -0.75112705
   2.33165809  2.86930960  5.76171100
   4.41512811  5.00256281  3.49519121
   9.86753248 21.50325500  4.47274729
   3.58705198  2.31628205  3.71361756
   3.16017106  5.55547907  5.54367279
   4.41491527 19.04547719  1.49012244
   9.04255403  2.49927124  5.83281688
  11.52954622  4.04504833  3.52381141
  11.53228375 20.03515912  1.47514344
   8.62968531 20.20884544 -0.73590162
   8.62957573  3.83760591  5.72599700
   4.40161361 21.31768097  2.34580814
  11.11466363 18.69725324  1.56728953
  11.11575144  5.38324314  3.41746365
   2.33864009 18.47203833  4.73285055
   1.91987612 19.80980715  4.64164958
   1.92905081  4.27121152  0.35691283
   4.82324328  4.05814009  2.55999844
   9.04757178 21.54691307 -0.82774720
   4.40863070  2.72032833  2.66739039
   2.34397985  5.60896321  0.24973862
   4.81983657 19.97959674  2.43708554
  11.57792980 31.34902063 -0.35684439
  11.57672301 24.61691052  3.22575036
   8.58787532 15.16790583  3.85510789
   8.59698006  8.89355451  1.09186343
   1.86745982 24.84658500  0.05986592
   4.86064603 15.39728089  0.68357939
   1.86546822 31.11686674  2.81795389
   4.85822580  8.65927418  4.26087127
  10.28879488  3.49026544  1.51001584
  10.28956732 20.57284701  3.49263890
   9.86999152 19.21340926  3.58904867
   9.87358428  4.84991762  1.39897041
   3.16100579 20.80331149  0.32157277
   3.58098123 19.44398006  0.41734745
   3.16553742  3.25623962  4.68467740
   3.58204197  4.61545274  4.57272894
   0.44944405 28.21164969 -1.72953843
  12.99161031 27.98152729  1.43285665
   6.26516403 12.02765860  2.46931477
   7.18413002 12.25707659 -0.70088531
   5.46461781  4.38506127  1.74113301
  11.42247989 17.95775680  0.82792415
  11.42446710  6.12931098  4.14976031
   8.73393331  1.75329408  5.10036220
   8.73899292 22.28619552 -0.08845213
   7.98597525 19.87449498  0.07818620
   1.27792121 20.14498854  3.82663817
   1.28729334  3.94455349  1.17554428
  12.17578798 20.37000863  0.66113740
   2.03604322  6.35580988  0.98167712
   2.03317935 17.73339266  3.99171779
   4.70790188 22.05629149  3.08675474
   5.46192638 19.64469370  3.25214413
   7.98904801  4.16610049  4.90702809
  12.17140610  3.71731742  4.34202264
   4.71676661  1.97358566  1.93541507
   9.44336930 14.69018185 -0.61692111
   4.00729492  9.58664680  2.38646314
   6.19410575 14.80342717  5.22913396
   0.52973852 24.98037247  1.85623823
   2.71218804 30.64098790 -1.64870400
   6.19974214  9.25902735 -0.28601766
  12.91433881 30.75625409  4.18995134
  10.73304942 25.54726074  1.35051240
   0.52939930 30.98240376  1.02056258
   7.24977019 15.03374672  2.06009971
   9.44440526  9.36578314  5.56024306
  10.72828068 30.41548674  1.51443717
   7.25690732  9.03157957  2.88501658
   4.00801563 14.46220949  2.55287616
   2.70967462 25.32415954  4.52890163
  12.91376425 25.21304157 -1.31649834
  12.75134315 29.52679844 -0.85477326
  12.04530464 29.26634562  0.29130853
  12.74687482 26.44082365  3.72594292
   7.42097947 13.34282754  3.35177314
   8.13235484 10.97568073  0.44122922
   1.39734325 26.92938400 -0.58698001
   8.12717689 13.08201712  4.49780955
   7.42536678 10.71725150  1.58722824
   5.31902367 13.31061406  1.32587505
   0.69320123 26.66803613  0.56008922
   1.39202861 29.03594202  3.46754853
   5.31937920 10.74214961  3.60927802
  12.04482266 26.69938194  2.57684717
   0.68886416 29.29635658  2.31968398
   6.02547808 10.48586195  4.75635697
   6.02527089 13.57080178  0.17966116
  11.09415272  0.78640843  1.74480250
  11.09620050 23.27848745  3.28210910
   9.06623912 16.50709837  3.79987298
   9.07808891  7.55594116  1.15771528
   2.35025896 23.50862330  0.11459690
   4.38354305 16.73697278  0.62797591
   2.35492807  0.55327082  4.91959435
   4.37825214  7.32120714  4.32874923
   9.98827642 -0.15830070  6.12078159
  12.32318313  1.32638763  3.61979120
  12.33313858 22.75216819  1.40817462
   7.83140419 17.48983397 -0.66807746
   7.84310800  6.55853849  5.62565700
   3.44909826 23.97689530  2.08612793
  10.16419216 16.03932276  1.82763996
  10.17166454  8.04171367  3.12818720
   3.28752348 15.81350098  4.99355383
   1.11468268 22.52568966  4.57840055
   1.13302497  1.55356885  0.45505893
   5.61028355  6.77918857  2.45640944
   9.99592188 24.20731612 -1.09097342
   3.45819567  0.06421960  2.95537389
   3.29016805  8.26623789 -0.04114271
   5.61735104 17.26006591  2.50457369
 


--------------------------------------------------------------------------------------------------------


 k-point  1 :   0.0000 0.0000 0.0000  plane waves:   90425
 k-point  2 :   0.5000 0.0000-0.0000  plane waves:   90452
 k-point  3 :  -0.0000 0.0000 0.2500  plane waves:   90399
 k-point  4 :   0.5000 0.0000 0.2500  plane waves:   90369
 k-point  5 :  -0.0000 0.0000 0.5000  plane waves:   90398
 k-point  6 :   0.5000 0.0000 0.5000  plane waves:   90420

 maximum and minimum number of plane-waves per node :     22655    22550

 maximum number of plane-waves:     90452
 maximum index in each direction: 
   IXMAX=   26   IYMAX=   63   IZMAX=   12
   IXMIN=  -27   IYMIN=  -63   IZMIN=  -13


 real space projection operators:
  total allocation   :      12102.12 KBytes
  max/ min on nodes  :       3028.80       3023.56


 parallel 3D FFT for wavefunctions:
    minimum data exchange during FFTs selected (reduces bandwidth)
 parallel 3D FFT for charge:
    minimum data exchange during FFTs selected (reduces bandwidth)


 total amount of memory used by VASP MPI-rank0    76470. kBytes
=======================================================================

   base      :      30000. kBytes
   nonlr-proj:       9662. kBytes
   fftplans  :       6031. kBytes
   grid      :      16293. kBytes
   one-center:       1213. kBytes
   wavefun   :      13271. kBytes
 
     INWAV:  cpu time    0.0001: real time    0.0001
 Broyden mixing: mesh for mixing (old mesh)
   NGX = 53   NGY =127   NGZ = 25
  (NGX  =168   NGY  =384   NGZ  = 80)
  gives a total of 168275 points

 initial charge density was supplied:
 charge density of overlapping atoms calculated
 number of electron     604.0000000 magnetization       0.0000000
 keeping initial charge density in first step


--------------------------------------------------------------------------------------------------------


 Maximum index for non-local projection operator          552
 Maximum index for augmentation-charges          427 (set IRDMAX)


--------------------------------------------------------------------------------------------------------


 First call to EWALD:  gamma=   0.127
 Maximum number of real-space cells 3x 1x 5
 Maximum number of reciprocal cells 3x 6x 2

    FEWALD:  cpu time    0.0187: real time    0.0188


--------------------------------------- Iteration      1(   1)  ---------------------------------------


    POTLOK:  cpu time    0.2611: real time    0.4232
    SETDIJ:  cpu time    0.0570: real time    0.0580
     EDDAV:  cpu time   28.1686: real time   28.2876
       DOS:  cpu time    0.0052: real time    0.0056
    --------------------------------------------
      LOOP:  cpu time   28.4920: real time   28.7745

 eigenvalue-minimisations  :  9216
 total energy-change (2. order) : 0.4773474E+04  (-0.2998203E+05)
 number of electron     604.0000000 magnetization       0.0000000
 augmentation part      604.0000000 magnetization       0.0000000

 Free energy of the ion-electron system (eV)
  ---------------------------------------------------
  alpha Z        PSCENC =       623.50432531
  Ewald energy   TEWEN  =     13303.83112909
  -Hartree energ DENC   =    -38193.22809731
  -exchange      EXHF   =         0.00000000
  -V(xc)+E(xc)   XCENC  =      2116.75920626
  PAW double counting   =     22087.95224925   -22402.63741193
  entropy T*S    EENTRO =        -0.03417963
  eigenvalues    EBANDS =     -1454.48430732
  atomic energy  EATOM  =     28691.81066055
  Solvation  Ediel_sol  =         0.00000000
  ---------------------------------------------------
  free energy    TOTEN  =      4773.47357427 eV

  energy without entropy =     4773.50775390  energy(sigma->0) =     4773.49066409


--------------------------------------------------------------------------------------------------------




--------------------------------------- Iteration      1(   2)  ---------------------------------------


     EDDAV:  cpu time   56.7857: real time   56.8399
       DOS:  cpu time    0.0026: real time    0.0026
    --------------------------------------------
      LOOP:  cpu time   56.7883: real time   56.8424

 eigenvalue-minimisations  : 13824
 total energy-change (2. order) :-0.5498551E+04  (-0.5415346E+04)
 number of electron     604.0000000 magnetization       0.0000000
 augmentation part      604.0000000 magnetization       0.0000000

 Free energy of the ion-electron system (eV)
  ---------------------------------------------------
  alpha Z        PSCENC =       623.50432531
  Ewald energy   TEWEN  =     13303.83112909
  -Hartree energ DENC   =    -38193.22809731
  -exchange      EXHF   =         0.00000000
  -V(xc)+E(xc)   XCENC  =      2116.75920626
  PAW double counting   =     22087.95224925   -22402.63741193
  entropy T*S    EENTRO =        -0.00000000
  eigenvalues    EBANDS =     -6953.06903271
  atomic energy  EATOM  =     28691.81066055
  Solvation  Ediel_sol  =         0.00000000
  ---------------------------------------------------
  free energy    TOTEN  =      -725.07697148 eV

  energy without entropy =     -725.07697148  energy(sigma->0) =     -725.07697148


--------------------------------------------------------------------------------------------------------




--------------------------------------- Iteration      1(   3)  ---------------------------------------


     EDDAV:  cpu time   35.3933: real time   35.4286
       DOS:  cpu time    0.0043: real time    0.0043
    --------------------------------------------
      LOOP:  cpu time   35.3976: real time   35.4329

 eigenvalue-minimisations  : 10752
 total energy-change (2. order) :-0.5579548E+03  (-0.5564908E+03)
 number of electron     604.0000000 magnetization       0.0000000
 augmentation part      604.0000000 magnetization       0.0000000

 Free energy of the ion-electron system (eV)
  ---------------------------------------------------
  alpha Z        PSCENC =       623.50432531
  Ewald energy   TEWEN  =     13303.83112909
  -Hartree energ DENC   =    -38193.22809731
  -exchange      EXHF   =         0.00000000
  -V(xc)+E(xc)   XCENC  =      2116.75920626
  PAW double counting   =     22087.95224925   -22402.63741193
  entropy T*S    EENTRO =        -0.08229777
  eigenvalues    EBANDS =     -7510.94150129
  atomic energy  EATOM  =     28691.81066055
  Solvation  Ediel_sol  =         0.00000000
  ---------------------------------------------------
  free energy    TOTEN  =     -1283.03173783 eV

  energy without entropy =    -1282.94944006  energy(sigma->0) =    -1282.99058895


--------------------------------------------------------------------------------------------------------




--------------------------------------- Iteration      1(   4)  ---------------------------------------


     EDDAV:  cpu time   48.8818: real time   48.9276
       DOS:  cpu time    0.0045: real time    0.0045
    --------------------------------------------
      LOOP:  cpu time   48.8863: real time   48.9321

 eigenvalue-minimisations  : 12288
 total energy-change (2. order) :-0.1225776E+02  (-0.1221075E+02)
 number of electron     604.0000000 magnetization       0.0000000
 augmentation part      604.0000000 magnetization       0.0000000

 Free energy of the ion-electron system (eV)
  ---------------------------------------------------
  alpha Z        PSCENC =       623.50432531
  Ewald energy   TEWEN  =     13303.83112909
  -Hartree energ DENC   =    -38193.22809731
  -exchange      EXHF   =         0.00000000
  -V(xc)+E(xc)   XCENC  =      2116.75920626
  PAW double counting   =     22087.95224925   -22402.63741193
  entropy T*S    EENTRO =        -0.08973617
  eigenvalues    EBANDS =     -7523.19182014
  atomic energy  EATOM  =     28691.81066055
  Solvation  Ediel_sol  =         0.00000000
  ---------------------------------------------------
  free energy    TOTEN  =     -1295.28949509 eV

  energy without entropy =    -1295.19975892  energy(sigma->0) =    -1295.24462701


--------------------------------------------------------------------------------------------------------




--------------------------------------- Iteration      1(   5)  ---------------------------------------


     EDDAV:  cpu time   49.9548: real time   50.0033
       DOS:  cpu time    0.0047: real time    0.0047
    CHARGE:  cpu time    0.5028: real time    0.5031
    MIXING:  cpu time    0.0098: real time    0.0112
    --------------------------------------------
      LOOP:  cpu time   50.4721: real time   50.5223

 eigenvalue-minimisations  : 12800
 total energy-change (2. order) :-0.4160773E+00  (-0.4159610E+00)
 number of electron     603.9999987 magnetization       0.0002046
 augmentation part       37.2784030 magnetization       0.0029677

 Broyden mixing:
  rms(total) = 0.84838E+01    rms(broyden)= 0.84832E+01
  rms(prec ) = 0.90069E+01
  weight for this iteration     100.00

 Free energy of the ion-electron system (eV)
  ---------------------------------------------------
  alpha Z        PSCENC =       623.50432531
  Ewald energy   TEWEN  =     13303.83112909
  -Hartree energ DENC   =    -38193.22809731
  -exchange      EXHF   =         0.00000000
  -V(xc)+E(xc)   XCENC  =      2116.75920626
  PAW double counting   =     22087.95224925   -22402.63741193
  entropy T*S    EENTRO =        -0.08979878
  eigenvalues    EBANDS =     -7523.60783486
  atomic energy  EATOM  =     28691.81066055
  Solvation  Ediel_sol  =         0.00000000
  ---------------------------------------------------
  free energy    TOTEN  =     -1295.70557242 eV

  energy without entropy =    -1295.61577363  energy(sigma->0) =    -1295.66067303


--------------------------------------------------------------------------------------------------------




--------------------------------------- Iteration      1(   6)  ---------------------------------------


    POTLOK:  cpu time    0.2329: real time    0.2366
    SETDIJ:  cpu time    0.1191: real time    0.1198
     EDDAV:  cpu time   43.2694: real time   43.3111
       DOS:  cpu time    0.0045: real time    0.0045
    CHARGE:  cpu time    0.4188: real time    0.4188
    MIXING:  cpu time    0.0057: real time    0.0083
    --------------------------------------------
      LOOP:  cpu time   44.0503: real time   44.0992

 eigenvalue-minimisations  : 12288
 total energy-change (2. order) :-0.2066398E+03  (-0.6670794E+03)
 number of electron     603.9999993 magnetization       0.0001847
 augmentation part       56.2062305 magnetization       0.0082125

 Broyden mixing:
  rms(total) = 0.20006E+02    rms(broyden)= 0.20006E+02
  rms(prec ) = 0.20265E+02
  weight for this iteration     100.00

 eigenvalues of (default mixing * dielectric matrix)
  average eigenvalue GAMMA=   0.1178
  0.1178

 Free energy of the ion-electron system (eV)
  ---------------------------------------------------
  alpha Z        PSCENC =       623.50432531
  Ewald energy   TEWEN  =     13303.83112909
  -Hartree energ DENC   =    -38674.67410461
  -exchange      EXHF   =         0.00000000
  -V(xc)+E(xc)   XCENC  =      2154.52942899
  PAW double counting   =     32857.68911987   -33085.74848438
  entropy T*S    EENTRO =        -0.07988429
  eigenvalues    EBANDS =     -7373.20754649
  atomic energy  EATOM  =     28691.81066055
  Solvation  Ediel_sol  =         0.00000000
  ---------------------------------------------------
  free energy    TOTEN  =     -1502.34535596 eV

  energy without entropy =    -1502.26547167  energy(sigma->0) =    -1502.30541381


--------------------------------------------------------------------------------------------------------




--------------------------------------- Iteration      1(   7)  ---------------------------------------


    POTLOK:  cpu time    0.2132: real time    0.2132
    SETDIJ:  cpu time    0.0558: real time    0.0558
     EDDAV:  cpu time   40.8498: real time   40.8886
       DOS:  cpu time    0.0044: real time    0.0044
    CHARGE:  cpu time    0.4102: real time    0.4102
    MIXING:  cpu time    0.0044: real time    0.0057
    --------------------------------------------
      LOOP:  cpu time   41.5378: real time   41.5779

 eigenvalue-minimisations  : 11520
 total energy-change (2. order) : 0.1120008E+03  (-0.1245351E+02)
 number of electron     603.9999990 magnetization       0.0052509
 augmentation part       54.9505509 magnetization      -0.0336429

 Broyden mixing:
  rms(total) = 0.13964E+02    rms(broyden)= 0.13964E+02
  rms(prec ) = 0.14281E+02
  weight for this iteration     100.00

 eigenvalues of (default mixing * dielectric matrix)
  average eigenvalue GAMMA=   0.5700
  0.5700  0.5700

 Free energy of the ion-electron system (eV)
  ---------------------------------------------------
  alpha Z        PSCENC =       623.50432531
  Ewald energy   TEWEN  =     13303.83112909
  -Hartree energ DENC   =    -38795.93884391
  -exchange      EXHF   =         0.00000000
  -V(xc)+E(xc)   XCENC  =      2156.66054820
  PAW double counting   =     34490.49269710   -34750.12080567
  entropy T*S    EENTRO =        -0.07365456
  eigenvalues    EBANDS =     -7110.51061801
  atomic energy  EATOM  =     28691.81066055
  Solvation  Ediel_sol  =         0.00000000
  ---------------------------------------------------
  free energy    TOTEN  =     -1390.34456190 eV

  energy without entropy =    -1390.27090733  energy(sigma->0) =    -1390.30773461


--------------------------------------------------------------------------------------------------------




--------------------------------------- Iteration      1(   8)  ---------------------------------------


    POTLOK:  cpu time    0.2052: real time    0.2060
    SETDIJ:  cpu time    0.0544: real time    0.0544
     EDDAV:  cpu time   55.5571: real time   55.6073
       DOS:  cpu time    0.0045: real time    0.0045
    CHARGE:  cpu time    0.4096: real time    0.4106
    MIXING:  cpu time    0.0043: real time    0.0043
    --------------------------------------------
      LOOP:  cpu time   56.2351: real time   56.2871

 eigenvalue-minimisations  : 13696
 total energy-change (2. order) : 0.2127174E+03  (-0.7713571E+02)
 number of electron     603.9999988 magnetization      -0.0293468
 augmentation part       37.3509775 magnetization       0.5580800

 Broyden mixing:
  rms(total) = 0.58556E+01    rms(broyden)= 0.58553E+01
  rms(prec ) = 0.64701E+01
  weight for this iteration     100.00

 eigenvalues of (default mixing * dielectric matrix)
  average eigenvalue GAMMA=   0.5514
  0.8528  0.4006  0.4006

 Free energy of the ion-electron system (eV)
  ---------------------------------------------------
  alpha Z        PSCENC =       623.50432531
  Ewald energy   TEWEN  =     13303.83112909
  -Hartree energ DENC   =    -39161.60771003
  -exchange      EXHF   =         0.00000000
  -V(xc)+E(xc)   XCENC  =      2170.71061188
  PAW double counting   =     40431.74718449   -40779.93207958
  entropy T*S    EENTRO =        -0.03568259
  eigenvalues    EBANDS =     -6457.65562885
  atomic energy  EATOM  =     28691.81066055
  Solvation  Ediel_sol  =         0.00000000
  ---------------------------------------------------
  free energy    TOTEN  =     -1177.62718972 eV

  energy without entropy =    -1177.59150714  energy(sigma->0) =    -1177.60934843


--------------------------------------------------------------------------------------------------------




--------------------------------------- Iteration      1(   9)  ---------------------------------------


    POTLOK:  cpu time    0.2112: real time    0.2112
    SETDIJ:  cpu time    0.1285: real time    0.1285
     EDDAV:  cpu time   52.4316: real time   52.4819
       DOS:  cpu time    0.0050: real time    0.0050
    CHARGE:  cpu time    0.4105: real time    0.4115
    MIXING:  cpu time    0.0040: real time    0.0040
    --------------------------------------------
      LOOP:  cpu time   53.1909: real time   53.2422

 eigenvalue-minimisations  : 13056
 total energy-change (2. order) :-0.5865956E+01  (-0.8042266E+02)
 number of electron     603.9999979 magnetization      -0.1245697
 augmentation part       45.1457670 magnetization       2.8680211

 Broyden mixing:
  rms(total) = 0.50518E+01    rms(broyden)= 0.50517E+01
  rms(prec ) = 0.55406E+01
  weight for this iteration     100.00

 eigenvalues of (default mixing * dielectric matrix)
  average eigenvalue GAMMA=   0.4654
  0.8943  0.3853  0.3853  0.1967

 Free energy of the ion-electron system (eV)
  ---------------------------------------------------
  alpha Z        PSCENC =       623.50432531
  Ewald energy   TEWEN  =     13303.83112909
  -Hartree energ DENC   =    -39328.10939018
  -exchange      EXHF   =         0.00000000
  -V(xc)+E(xc)   XCENC  =      2181.71238081
  PAW double counting   =     46462.03835901   -46809.05707156
  entropy T*S    EENTRO =        -0.01686271
  eigenvalues    EBANDS =     -6309.20667642
  atomic energy  EATOM  =     28691.81066055
  Solvation  Ediel_sol  =         0.00000000
  ---------------------------------------------------
  free energy    TOTEN  =     -1183.49314608 eV

  energy without entropy =    -1183.47628338  energy(sigma->0) =    -1183.48471473


--------------------------------------------------------------------------------------------------------




--------------------------------------- Iteration      1(  10)  ---------------------------------------


    POTLOK:  cpu time    0.2040: real time    0.2040
    SETDIJ:  cpu time    0.0549: real time    0.0549
     EDDAV:  cpu time   63.9082: real time   63.9677
       DOS:  cpu time    0.0065: real time    0.0064
    CHARGE:  cpu time    0.4064: real time    0.4073
    MIXING:  cpu time    0.0045: real time    0.0045
    --------------------------------------------
      LOOP:  cpu time   64.5845: real time   64.6449

 eigenvalue-minimisations  : 15360
 total energy-change (2. order) : 0.1485542E+02  (-0.1541474E+02)
 number of electron     603.9999988 magnetization      -0.1460274
 augmentation part       45.1738651 magnetization      -2.1901329

 Broyden mixing:
  rms(total) = 0.47014E+01    rms(broyden)= 0.47013E+01
  rms(prec ) = 0.51516E+01
  weight for this iteration     100.00

 eigenvalues of (default mixing * dielectric matrix)
  average eigenvalue GAMMA=   0.6165
  1.5964  0.5202  0.4344  0.4344  0.0968

 Free energy of the ion-electron system (eV)
  ---------------------------------------------------
  alpha Z        PSCENC =       623.50432531
  Ewald energy   TEWEN  =     13303.83112909
  -Hartree energ DENC   =    -39383.30309410
  -exchange      EXHF   =         0.00000000
  -V(xc)+E(xc)   XCENC  =      2184.94948542
  PAW double counting   =     47871.84552201   -48219.93683901
  entropy T*S    EENTRO =        -0.01729420
  eigenvalues    EBANDS =     -6241.32161803
  atomic energy  EATOM  =     28691.81066055
  Solvation  Ediel_sol  =         0.00000000
  ---------------------------------------------------
  free energy    TOTEN  =     -1168.63772295 eV

  energy without entropy =    -1168.62042875  energy(sigma->0) =    -1168.62907585


--------------------------------------------------------------------------------------------------------




--------------------------------------- Iteration      1(  11)  ---------------------------------------


    POTLOK:  cpu time    0.2072: real time    0.2072
    SETDIJ:  cpu time    0.0546: real time    0.0546
     EDDAV:  cpu time   52.3437: real time   52.3926
       DOS:  cpu time    0.0045: real time    0.0045
    CHARGE:  cpu time    0.4091: real time    0.4101
    MIXING:  cpu time    0.0043: real time    0.0043
    --------------------------------------------
      LOOP:  cpu time   53.0234: real time   53.0733

 eigenvalue-minimisations  : 13056
 total energy-change (2. order) : 0.6693619E+01  (-0.1216590E+02)
 number of electron     603.9999981 magnetization      -0.2625275
 augmentation part       44.6047764 magnetization       2.0189232

 Broyden mixing:
  rms(total) = 0.36992E+01    rms(broyden)= 0.36991E+01
  rms(prec ) = 0.41515E+01
  weight for this iteration     100.00

 eigenvalues of (default mixing * dielectric matrix)
  average eigenvalue GAMMA=   0.6770
  1.8218  0.6733  0.6733  0.4022  0.4022  0.0890

 Free energy of the ion-electron system (eV)
  ---------------------------------------------------
  alpha Z        PSCENC =       623.50432531
  Ewald energy   TEWEN  =     13303.83112909
  -Hartree energ DENC   =    -39567.23784190
  -exchange      EXHF   =         0.00000000
  -V(xc)+E(xc)   XCENC  =      2193.78618086
  PAW double counting   =     52516.49022659   -52867.78323593
  entropy T*S    EENTRO =        -0.03168967
  eigenvalues    EBANDS =     -6056.31385887
  atomic energy  EATOM  =     28691.81066055
  Solvation  Ediel_sol  =         0.00000000
  ---------------------------------------------------
  free energy    TOTEN  =     -1161.94410397 eV

  energy without entropy =    -1161.91241430  energy(sigma->0) =    -1161.92825913


--------------------------------------------------------------------------------------------------------




--------------------------------------- Iteration      1(  12)  ---------------------------------------


    POTLOK:  cpu time    0.2089: real time    0.2089
    SETDIJ:  cpu time    0.0547: real time    0.0547
     EDDAV:  cpu time   51.5724: real time   51.6202
       DOS:  cpu time    0.0044: real time    0.0044
    CHARGE:  cpu time    0.4124: real time    0.4134
    MIXING:  cpu time    0.0045: real time    0.0045
    --------------------------------------------
      LOOP:  cpu time   52.2573: real time   52.3060

 eigenvalue-minimisations  : 13056
 total energy-change (2. order) :-0.6907376E+01  (-0.2145622E+02)
 number of electron     603.9999985 magnetization      -0.2765462
 augmentation part       45.2658027 magnetization      -2.3131921

 Broyden mixing:
  rms(total) = 0.41609E+01    rms(broyden)= 0.41608E+01
  rms(prec ) = 0.46343E+01
  weight for this iteration     100.00

 eigenvalues of (default mixing * dielectric matrix)
  average eigenvalue GAMMA=   0.6651
  1.9392  0.7437  0.7437  0.4044  0.4044  0.3326  0.0879

 Free energy of the ion-electron system (eV)
  ---------------------------------------------------
  alpha Z        PSCENC =       623.50432531
  Ewald energy   TEWEN  =     13303.83112909
  -Hartree energ DENC   =    -39639.13495230
  -exchange      EXHF   =         0.00000000
  -V(xc)+E(xc)   XCENC  =      2196.01294873
  PAW double counting   =     55065.74839213   -55409.14001625
  entropy T*S    EENTRO =        -0.03277754
  eigenvalues    EBANDS =     -6001.45118934
  atomic energy  EATOM  =     28691.81066055
  Solvation  Ediel_sol  =         0.00000000
  ---------------------------------------------------
  free energy    TOTEN  =     -1168.85147962 eV

  energy without entropy =    -1168.81870208  energy(sigma->0) =    -1168.83509085


--------------------------------------------------------------------------------------------------------




--------------------------------------- Iteration      1(  13)  ---------------------------------------


    POTLOK:  cpu time    0.2882: real time    0.2882
    SETDIJ:  cpu time    0.0554: real time    0.0554
     EDDAV:  cpu time   61.6780: real time   61.7364
       DOS:  cpu time    0.0046: real time    0.0046
    CHARGE:  cpu time    0.4104: real time    0.4104
    MIXING:  cpu time    0.0047: real time    0.0047
    --------------------------------------------
      LOOP:  cpu time   62.4413: real time   62.4997

 eigenvalue-minimisations  : 15104
 total energy-change (2. order) :-0.4098196E+01  (-0.1196231E+02)
 number of electron     603.9999999 magnetization      -0.3127763
 augmentation part       45.4774898 magnetization      -0.1670027

 Broyden mixing:
  rms(total) = 0.57644E+01    rms(broyden)= 0.57643E+01
  rms(prec ) = 0.62471E+01
  weight for this iteration     100.00

 eigenvalues of (default mixing * dielectric matrix)
  average eigenvalue GAMMA=   0.6261
  2.0686  0.7888  0.7888  0.4129  0.4129  0.3825  0.0879  0.0667

 Free energy of the ion-electron system (eV)
  ---------------------------------------------------
  alpha Z        PSCENC =       623.50432531
  Ewald energy   TEWEN  =     13303.83112909
  -Hartree energ DENC   =    -39665.28778875
  -exchange      EXHF   =         0.00000000
  -V(xc)+E(xc)   XCENC  =      2196.94385111
  PAW double counting   =     55875.94532120   -56217.79179848
  entropy T*S    EENTRO =        -0.05508006
  eigenvalues    EBANDS =     -5981.85029552
  atomic energy  EATOM  =     28691.81066055
  Solvation  Ediel_sol  =         0.00000000
  ---------------------------------------------------
  free energy    TOTEN  =     -1172.94967555 eV

  energy without entropy =    -1172.89459549  energy(sigma->0) =    -1172.92213552


--------------------------------------------------------------------------------------------------------




--------------------------------------- Iteration      1(  14)  ---------------------------------------


    POTLOK:  cpu time    0.3335: real time    0.3335
    SETDIJ:  cpu time    0.0536: real time    0.0544
     EDDAV:  cpu time   60.3800: real time   60.4352
[...]
   80            fft3d_mpi                            16.819160                     2376   5
   81              fftbas_plan_mpi                      16.810515                   2376   6
   82                dfftw_execute                         7.950269                 7128   7
   83                map_forward                           7.511802                 4752   7
   84                  map_gather                            1.873195               2376   8
   85                  m_alltoallv_z                         1.968259               2376   8
   86                  map_scatter                           2.279254               2376   8
   87          pw_charge                             1.841515                       2376   4
   88          fft3d_mpi                             0.806021                        132   4
   89            fftbas_plan_mpi                       0.738003                      132   5
   90              dfftw_execute                         0.199724                    396   6
   91              map_backward                          0.463649                    264   6
   92                map_gather                            0.102743                  264   7
   93                m_alltoallv_z                         0.354014                  264   7
   94                map_scatter                           0.003597                  264   7
   95        depsum                                0.359694                           66   3
   96        fft3d_mpi                             0.841886                          132   3
   97          fftbas_plan_mpi                       0.827992                        132   4
   98            dfftw_execute                         0.060382                      396   5
   99            map_backward                          0.670783                      264   5
  100              map_gather                            0.014253                    132   6
  101              m_alltoallv_z                         0.650288                    132   6
  102              map_scatter                           0.004301                    132   6
  103      brmix                                 0.698738                             66   2
  104        brpre                                 0.006759                          132   3
  105        setg0                                 0.035500                           68   3
  106        broyd                                 0.455757                           66   3
  107          brsav                                 0.010170                       2798   4
  108          brget                                 0.035820                      10523   4
  109      force_and_stress                     12.936978                              1   2
  110        set_charge                            0.402157                            1   3
  111          soft_charge                           0.349923                          1   4
  112            fftwav_mpi                            0.272353                       36   5
  113              fft3d_mpi                             0.245895                     36   6
  114                fftbas_plan_mpi                       0.245762                   36   7
  115                  dfftw_execute                         0.121220                108   8
  116                  map_forward                           0.104617                 72   8
  117                    map_gather                            0.029141               36   9
  118                    m_alltoallv_z                         0.021417               36   9
  119                    map_scatter                           0.033437               36   9
  120            pw_charge                             0.029190                       36   5
  121            fft3d_mpi                             0.010784                        2   5
  122              fftbas_plan_mpi                       0.009722                      2   6
  123                dfftw_execute                         0.003004                    6   7
  124                map_backward                          0.005624                    4   7
  125                  map_gather                            0.001609                  4   8
  126                  m_alltoallv_z                         0.003907                  4   8
  127                  map_scatter                           0.000051                  4   8
  128          depsum                                0.004995                          1   4
  129          fft3d_mpi                             0.009521                          2   4
  130            fftbas_plan_mpi                       0.009333                        2   5
  131              dfftw_execute                         0.000910                      6   6
  132              map_backward                          0.007057                      4   6
  133                map_gather                            0.000285                    2   7
  134                m_alltoallv_z                         0.006678                    2   7
  135                map_scatter                           0.000061                    2   7
  136        forloc                                0.032801                            1   3
  137        fornlr                                1.435090                            1   3
  138          rspher_all                            0.091691                          3   4
  139          phaser                                0.256242                         18   4
  140          rpro_isp                              1.057261                         18   4
  141            fftwav_mpi                            0.823423                      108   5
  142              fft3d_mpi                             0.718772                    108   6
  143                fftbas_plan_mpi                       0.718393                  108   7
  144                  dfftw_execute                         0.355988                324   8
  145                  map_forward                           0.302474                216   8
  146                    map_gather                            0.080197              108   9
  147                    m_alltoallv_z                         0.063473              108   9
  148                    map_scatter                           0.099183              108   9
  149            rpromu                                0.186968                       36   5
  150              crrexp_mul_wave                       0.092057                  16848   6
  151              rpromu_gemm                           0.062023                   5616   6
  152        fordep                                0.204860                            1   3
  153          setdij_                               0.204395                          6   4
  154        setdij_                               0.767433                           20   3
  155        set_dd_paw                            0.019696                            1   3
  156        strkin                                0.006452                            1   3
  157        strelo                                0.002287                            1   3
  158        strnlr                                4.187117                            1   3
  159          rspher_all                            0.275826                          9   4
  160          phaser                                0.772860                         54   4
  161          rpro_isp                              2.949423                         54   4
  162            fftwav_mpi                            2.373374                      324   5
  163              fft3d_mpi                             2.138505                    324   6
  164                fftbas_plan_mpi                       2.137336                  324   7
  165                  dfftw_execute                         1.059154                972   8
  166                  map_forward                           0.897826                648   8
  167                    map_gather                            0.239097              324   9
  168                    m_alltoallv_z                         0.187977              324   9
  169                    map_scatter                           0.294218              324   9
  170            rpromu                                0.571526                      108   5
  171              crrexp_mul_wave                       0.283611                  50544   6
  172              rpromu_gemm                           0.189402                  16848   6
  173        fft3d_mpi                             0.106844                           22   3
  174          fftbas_plan_mpi                       0.104807                         22   4
  175            dfftw_execute                         0.010650                       66   5
  176            map_forward                           0.043388                       20   5
  177              map_gather                            0.000311                     10   6
  178              m_alltoallv_z                         0.041030                     10   6
  179              map_scatter                           0.001879                     10   6
  180            map_backward                          0.034781                       24   5
  181              map_gather                            0.001474                     12   6
  182              m_alltoallv_z                         0.032754                     12   6
  183              map_scatter                           0.000365                     12   6
  184        forhar                                0.058040                            2   3
  185        strehar                               0.002013                            1   3
  186        chggra                                0.019381                            1   3
  187          fft3d_mpi                             0.015756                          3   4
  188            fftbas_plan_mpi                       0.015426                        3   5
  189              dfftw_execute                         0.001564                      9   6
  190              map_forward                           0.009172                      4   6
  191                map_gather                            0.000054                    2   7
  192                m_alltoallv_z                         0.008739                    2   7
  193                map_scatter                           0.000342                    2   7
  194              map_backward                          0.002565                      2   6
  195                map_gather                            0.000107                    1   7
  196                m_alltoallv_z                         0.002410                    1   7
  197                map_scatter                           0.000031                    1   7
  198        brmix                                 0.012481                            1   3
  199          brpre                                 0.000089                          2   4
  200          setg0                                 0.000474                          1   4
  201          broyd                                 0.010072                          1   4
  202            brget                                 0.000799                      214   5
  203            brsav                                 0.000146                       46   5
 
 Flat profile
 ============
 
             routine name                   CPU           calls
 ---------------------------------------------------------------
 eddav                                3046.375243          71
 total_time                            439.110995           1
 redis_pw                              105.061697       28029
 dfftw_execute                          98.670934       93741
 orth1                                  80.349462       28893
 redis_proj                             42.119337       35104
 m_alltoallv_z                          37.572814       31517
 map_scatter                            29.650501       31517
 map_gather                             25.481152       31517
 fftwav_mpi                             20.763895       19562
 fftbas_plan_mpi                        18.051839       31249
 map_forward                            14.474981       41062
 crrexp_mul_work_add                    14.033275     1500564
 racc0                                  13.440481        9619
 phaser                                 13.208701         930
 vhamil                                 11.881079        9619
 rpro1                                   9.143616        7063
 lincom                                  8.330773         864
 crrexp_mul_wave                         6.652044     1174836
 force_and_stress                        5.680326           1
 w1_copy                                 3.611802       28857
 soft_charge                             3.553542          67
 setdij_                                 3.471985          95
 set_charge                              2.627364          67
 fftext_mpi                              2.521526        9619
 eccp                                    2.381109        2556
 pw_charge                               1.870705        2412
 kinhamil                                1.509014        9619
 set_dd_paw                              1.498060          69
 apply_precond                           0.900468        7063
 overl                                   0.532366       16694
 setup_precond                           0.500898        2556
 fft3d_mpi                               0.425550       31247
 broyd                                   0.418894          67
 rspher_all                              0.417524          14
 overl1                                  0.409188        9619
 depsum                                  0.364689          67
 rpromu_gemm                             0.283508       24336
 choleski                                0.265754          12
 map_backward                            0.213950       21432
 brmix                                   0.202569          67
 orthch                                  0.199501           1
 strnlr                                  0.189008           1
 hamiltmu                                0.145162        9619
 rpromu                                  0.143359         156
 raccmu_                                 0.062142        9619
 forhar                                  0.058040           2
 rpro_isp                                0.052131          78
 w1_projall                              0.046473        7063
 brget                                   0.036619       10737
 setg0                                   0.035974          69
 forloc                                  0.032801           1
 fornlr                                  0.029897           1
 brsav                                   0.010316        2844
 truncate_high_frequency_w1              0.009120       12175
 brpre                                   0.006848         134
 strkin                                  0.006452           1
 chggra                                  0.003625           1
 strelo                                  0.002287           1
 strehar                                 0.002013           1
 fordep                                  0.000465           1
 brgrid                                  0.000396           1
 redis_pw_over_bands                     0.000001           1
 ---------------------------------------------------------------
  summed up times    4069.10623908043     
 
 Accumulative profile
 ====================
 
             routine name                   CPU           calls
 ---------------------------------------------------------------
 total_time                           4069.106239           1
 eddav                                3572.613586          71
 fft3d_mpi                             224.480080       31247
 fftbas_plan_mpi                       224.116170       31249
 fftwav_mpi                            171.940975       19562
 hamiltmu                              106.058819        9619
 redis_pw                              105.061697       28029
 dfftw_execute                          98.670934       93741
 orth1                                  80.349462       28893
 map_forward                            78.814173       41062
 kinhamil                               66.087492        9619
 fftext_mpi                             64.578478        9619
 redis_proj                             42.119337       35104
 m_alltoallv_z                          37.572814       31517
 map_scatter                            29.650501       31517
 set_charge                             29.007141          67
 map_backward                           28.579224       21432
 raccmu_                                27.945086        9619
 racc0                                  27.473756        9619
 map_gather                             25.481152       31517
 soft_charge                            25.163681          67
 w1_projall                             15.434311        7063
 rpro1                                  15.387838        7063
 crrexp_mul_work_add                    14.033275     1500564
 phaser                                 13.208701         930
 force_and_stress                       12.936978           1
 vhamil                                 11.881079        9619
 lincom                                  8.330773         864
 crrexp_mul_wave                         6.652044     1174836
 rpro_isp                                4.384860          78
 strnlr                                  4.187117           1
 w1_copy                                 3.611802       28857
 setdij_                                 3.471985          95
 eccp                                    2.381109        2556
 pw_charge                               1.870705        2412
 set_dd_paw                              1.498060          69
 fornlr                                  1.435090           1
 orthch                                  1.129022           1
 apply_precond                           0.900468        7063
 rpromu                                  0.834689         156
 brmix                                   0.711219          67
 overl                                   0.532366       16694
 setup_precond                           0.500898        2556
 broyd                                   0.465829          67
 rspher_all                              0.417524          14
 overl1                                  0.409188        9619
 depsum                                  0.364689          67
 rpromu_gemm                             0.283508       24336
 choleski                                0.265754          12
 fordep                                  0.204860           1
 forhar                                  0.058040           2
 brget                                   0.036619       10737
 setg0                                   0.035974          69
 forloc                                  0.032801           1
 chggra                                  0.019381           1
 brsav                                   0.010316        2844
 truncate_high_frequency_w1              0.009120       12175
 brpre                                   0.006848         134
 strkin                                  0.006452           1
 strelo                                  0.002287           1
 strehar                                 0.002013           1
 brgrid                                  0.000396           1
 redis_pw_over_bands                     0.000001           1
 ---------------------------------------------------------------
 
Profiling took   1.977526  1.083074  0.012859  0.012391 seconds
Profiling took   2.276848 seconds
