       N       E                     dE             d eps       ncg     rms          rms(c)
DAV:   1     0.565002415217E+04    0.56500E+04   -0.26503E+05  4608   0.142E+03
DAV:   2    -0.219954638438E+03   -0.58700E+04   -0.56416E+04  6720   0.320E+02
DAV:   3    -0.125752767389E+04   -0.10376E+04   -0.10304E+04  5408   0.141E+02
DAV:   4    -0.129624651633E+04   -0.38719E+02   -0.38414E+02  6176   0.371E+01
DAV:   5    -0.129733341910E+04   -0.10869E+01   -0.10838E+01  6720   0.568E+00    0.880E+01
DAV:   6    -0.152172219377E+04   -0.22439E+03   -0.28122E+03  6656   0.923E+01    0.225E+02
DAV:   7    -0.142188772491E+04    0.99834E+02   -0.22964E+02  5472   0.311E+01    0.144E+02
DAV:   8    -0.115728425915E+04    0.26460E+03   -0.27121E+02  6400   0.882E+01    0.320E+01
DAV:   9    -0.116938506999E+04   -0.12101E+02   -0.10158E+02  5952   0.180E+01    0.196E+01
DAV:  10    -0.116554212414E+04    0.38429E+01   -0.14805E+01  6112   0.911E+00    0.138E+01
DAV:  11    -0.116649639866E+04   -0.95427E+00   -0.21359E+01  6720   0.114E+01    0.181E+01
DAV:  12    -0.116631084755E+04    0.18555E+00   -0.17993E+01  6720   0.104E+01    0.762E+00
DAV:  13    -0.116674204483E+04   -0.43120E+00   -0.98283E-01  6528   0.530E+00    0.429E+00
DAV:  14    -0.116722363991E+04   -0.48160E+00   -0.30829E-01  6784   0.212E+00    0.283E+00
DAV:  15    -0.116756720225E+04   -0.34356E+00   -0.10572E-01  6176   0.108E+00    0.156E+00
DAV:  16    -0.116782230198E+04   -0.25510E+00   -0.41969E-02  6240   0.736E-01    0.989E-01
DAV:  17    -0.116808352663E+04   -0.26122E+00   -0.54239E-02  6496   0.102E+00    0.654E-01
DAV:  18    -0.116828328451E+04   -0.19976E+00   -0.72138E-02  6496   0.961E-01    0.563E-01
DAV:  19    -0.116838845162E+04   -0.10517E+00   -0.43486E-02  6208   0.488E-01    0.626E-01
DAV:  20    -0.116844354411E+04   -0.55092E-01   -0.10263E-02  6432   0.376E-01    0.538E-01
DAV:  21    -0.116853657625E+04   -0.93032E-01   -0.14118E-02  5696   0.320E-01    0.343E-01
DAV:  22    -0.116874711950E+04   -0.21054E+00   -0.33616E-02  5536   0.363E-01    0.377E-01
DAV:  23    -0.116881053972E+04   -0.63420E-01   -0.68630E-03  6240   0.256E-01    0.187E-01
DAV:  24    -0.116884941549E+04   -0.38876E-01   -0.29924E-03  5888   0.134E-01    0.126E-01
DAV:  25    -0.116887984053E+04   -0.30425E-01   -0.28699E-03  5728   0.115E-01    0.113E-01
DAV:  26    -0.116889242779E+04   -0.12587E-01   -0.98687E-04  5984   0.590E-02    0.796E-02
DAV:  27    -0.116889958840E+04   -0.71606E-02   -0.52524E-04  5792   0.483E-02    0.458E-02
DAV:  28    -0.116890288860E+04   -0.33002E-02   -0.29767E-04  5728   0.332E-02    0.334E-02
DAV:  29    -0.116890455608E+04   -0.16675E-02   -0.16399E-04  5632   0.259E-02    0.244E-02
DAV:  30    -0.116890550731E+04   -0.95123E-03   -0.69928E-05  5760   0.159E-02    0.151E-02
DAV:  31    -0.116890595014E+04   -0.44283E-03   -0.25559E-05  5344   0.988E-03    0.107E-02
DAV:  32    -0.116890632634E+04   -0.37620E-03   -0.20010E-05  5120   0.672E-03    0.654E-03
DAV:  33    -0.116890655895E+04   -0.23261E-03   -0.11884E-05  5120   0.662E-03    0.294E-03
DAV:  34    -0.116890667037E+04   -0.11142E-03   -0.50196E-06  4768   0.406E-03    0.235E-03
DAV:  35    -0.116890672562E+04   -0.55251E-04   -0.27596E-06  4576   0.255E-03    0.172E-03
DAV:  36    -0.116890674210E+04   -0.16478E-04   -0.48881E-07  3808   0.133E-03    0.121E-03
DAV:  37    -0.116890675385E+04   -0.11752E-04   -0.51904E-07  3680   0.117E-03    0.924E-04
DAV:  38    -0.116890675854E+04   -0.46932E-05   -0.17663E-07  3648   0.836E-04    0.514E-04
DAV:  39    -0.116890676134E+04   -0.28033E-05   -0.10104E-07  3584   0.519E-04    0.376E-04
DAV:  40    -0.116890676333E+04   -0.19858E-05   -0.56425E-08  3264   0.540E-04    0.294E-04
DAV:  41    -0.116890676504E+04   -0.17132E-05   -0.39209E-08  3456   0.439E-04    0.197E-04
DAV:  42    -0.116890676629E+04   -0.12459E-05   -0.24269E-08  3264   0.321E-04    0.169E-04
DAV:  43    -0.116890676674E+04   -0.45229E-06   -0.10034E-08  3264   0.218E-04
   1 F= -.11789033E+04 E0= -.11788997E+04  d E =-.117890E+04  mag=    -0.0002
