 vasp.6.0.8 29Jun18 (build Mar 14 2019 11:44:20) complex                        
  
 executed on             LinuxIFC date 2020.12.29  12:23:17
 running  128 mpi-ranks, with    1 threads/rank
 distrk:  each k-point on  128 cores,    1 groups
 distr:  one band on NCORES_PER_BAND=   4 cores,   32 groups


--------------------------------------------------------------------------------------------------------


 INCAR:
 POTCAR:    PAW_PBE C 08Apr2002                   
 POTCAR:    PAW_PBE Co 02Aug2007                  
 POTCAR:    PAW_PBE H 15Jun2001                   
 POTCAR:    PAW_PBE N 08Apr2002                   
 POTCAR:    PAW_PBE O 08Apr2002                   
 POTCAR:    PAW_PBE C 08Apr2002                   
   VRHFIN =C: s2p2                                                              
   LEXCH  = PE                                                                  
   EATOM  =   147.1560 eV,   10.8157 Ry                                         
                                                                                
   TITEL  = PAW_PBE C 08Apr2002                                                 
   LULTRA =        F    use ultrasoft PP ?                                      
   IUNSCR =        1    unscreen: 0-lin 1-nonlin 2-no                           
   RPACOR =    1.200    partial core radius                                     
   POMASS =   12.011; ZVAL   =    4.000    mass and valenz                      
   RCORE  =    1.500    outmost cutoff radius                                   
   RWIGS  =    1.630; RWIGS  =    0.863    wigner-seitz radius (au A)           
   ENMAX  =  400.000; ENMIN  =  300.000 eV                                      
   ICORE  =        2    local potential                                         
   LCOR   =        T    correct aug charges                                     
   LPAW   =        T    paw PP                                                  
   EAUG   =  644.873                                                            
   DEXC   =    0.000                                                            
   RMAX   =    1.529    core radius for proj-oper                               
   RAUG   =    1.300    factor for augmentation sphere                          
   RDEP   =    1.501    radius for radial grids                                 
   RDEPT  =    1.300    core radius for aug-charge                              
                                                                                
   Atomic configuration                                                         
    4 entries                                                                   
     n  l   j            E        occ.                                          
     1  0  0.50      -273.3789   2.0000                                         
     2  0  0.50       -13.7508   2.0000                                         
     2  1  0.50        -5.2854   2.0000                                         
     3  2  1.50        -5.4423   0.0000                                         
   Description                                                                  
     l       E           TYP  RCUT    TYP  RCUT                                 
     0    -13.7508458     23  1.200                                             
     0     -8.2022199     23  1.200                                             
     1     -5.2854383     23  1.500                                             
     1     34.0145650     23  1.500                                             
     2     -5.4423304      7  1.500                                             
  local pseudopotential read in
  partial core-charges read in
  partial kinetic energy density read in
  atomic valenz-charges read in
  non local Contribution for L=           0  read in
    real space projection operators read in
  non local Contribution for L=           0  read in
    real space projection operators read in
  non local Contribution for L=           1  read in
    real space projection operators read in
  non local Contribution for L=           1  read in
    real space projection operators read in
    PAW grid and wavefunctions read in
 
   number of l-projection  operators is LMAX  =           4
   number of lm-projection operators is LMMAX =           8
 
 POTCAR:    PAW_PBE Co 02Aug2007                  
   VRHFIN =Co: d8 s1                                                            
   LEXCH  = PE                                                                  
   EATOM  =   813.3670 eV,   59.7808 Ry                                         
                                                                                
   TITEL  = PAW_PBE Co 02Aug2007                                                
   LULTRA =        F    use ultrasoft PP ?                                      
   IUNSCR =        1    unscreen: 0-lin 1-nonlin 2-no                           
   RPACOR =    2.000    partial core radius                                     
   POMASS =   58.933; ZVAL   =    9.000    mass and valenz                      
   RCORE  =    2.300    outmost cutoff radius                                   
   RWIGS  =    2.460; RWIGS  =    1.302    wigner-seitz radius (au A)           
   ENMAX  =  267.968; ENMIN  =  200.976 eV                                      
   RCLOC  =    1.203    cutoff for local pot                                    
   LCOR   =        T    correct aug charges                                     
   LPAW   =        T    paw PP                                                  
   EAUG   =  477.818                                                            
   DEXC   =    0.000                                                            
   RMAX   =    2.360    core radius for proj-oper                               
   RAUG   =    1.300    factor for augmentation sphere                          
   RDEP   =    2.393    radius for radial grids                                 
   RDEPT  =    1.864    core radius for aug-charge                              
                                                                                
   Atomic configuration                                                         
    9 entries                                                                   
     n  l   j            E        occ.                                          
     1  0  0.50     -7587.6674   2.0000                                         
     2  0  0.50      -893.6084   2.0000                                         
     2  1  1.50      -764.5805   6.0000                                         
     3  0  0.50       -97.5973   2.0000                                         
     3  1  1.50       -60.9648   6.0000                                         
     3  2  2.50        -4.2382   8.0000                                         
     4  0  0.50        -4.3746   1.0000                                         
     4  1  1.50        -4.0817   0.0000                                         
     4  3  2.50        -1.3606   0.0000                                         
   Description                                                                  
     l       E           TYP  RCUT    TYP  RCUT                                 
     2     -4.2382362     23  2.300                                             
     2     -5.5988188     23  2.300                                             
     0     -4.3745797     23  2.300                                             
     0      5.7660125     23  2.300                                             
     1     -2.7211652     23  2.300                                             
     1     16.9860234     23  2.300                                             
  local pseudopotential read in
  partial core-charges read in
  partial kinetic energy density read in
  atomic valenz-charges read in
  non local Contribution for L=           2  read in
    real space projection operators read in
  non local Contribution for L=           2  read in
    real space projection operators read in
  non local Contribution for L=           0  read in
    real space projection operators read in
  non local Contribution for L=           0  read in
    real space projection operators read in
  non local Contribution for L=           1  read in
    real space projection operators read in
  non local Contribution for L=           1  read in
    real space projection operators read in
    PAW grid and wavefunctions read in
 
   number of l-projection  operators is LMAX  =           6
   number of lm-projection operators is LMMAX =          18
 
 POTCAR:    PAW_PBE H 15Jun2001                   
   VRHFIN =H: ultrasoft test                                                    
   LEXCH  = PE                                                                  
   EATOM  =    12.4884 eV,    0.9179 Ry                                         
                                                                                
   TITEL  = PAW_PBE H 15Jun2001                                                 
   LULTRA =        F    use ultrasoft PP ?                                      
   IUNSCR =        0    unscreen: 0-lin 1-nonlin 2-no                           
   RPACOR =    0.000    partial core radius                                     
   POMASS =    1.000; ZVAL   =    1.000    mass and valenz                      
   RCORE  =    1.100    outmost cutoff radius                                   
   RWIGS  =    0.700; RWIGS  =    0.370    wigner-seitz radius (au A)           
   ENMAX  =  250.000; ENMIN  =  200.000 eV                                      
   RCLOC  =    0.701    cutoff for local pot                                    
   LCOR   =        T    correct aug charges                                     
   LPAW   =        T    paw PP                                                  
   EAUG   =  400.000                                                            
   RMAX   =    1.123    core radius for proj-oper                               
   RAUG   =    1.200    factor for augmentation sphere                          
   RDEP   =    1.112    radius for radial grids                                 
   RDEPT  =    0.926    core radius for aug-charge                              
                                                                                
   Atomic configuration                                                         
    2 entries                                                                   
     n  l   j            E        occ.                                          
     1  0  0.50        -6.4927   1.0000                                         
     2  1  0.50        -3.4015   0.0000                                         
   Description                                                                  
     l       E           TYP  RCUT    TYP  RCUT                                 
     0     -6.4927494     23  1.100                                             
     0      6.8029130     23  1.100                                             
     1     -4.0817478     23  1.100                                             
  local pseudopotential read in
  atomic valenz-charges read in
  non local Contribution for L=           0  read in
    real space projection operators read in
  non local Contribution for L=           0  read in
    real space projection operators read in
  non local Contribution for L=           1  read in
    real space projection operators read in
    PAW grid and wavefunctions read in
 
   number of l-projection  operators is LMAX  =           3
   number of lm-projection operators is LMMAX =           5
 
 POTCAR:    PAW_PBE N 08Apr2002                   
   VRHFIN =N: s2p3                                                              
   LEXCH  = PE                                                                  
   EATOM  =   264.5486 eV,   19.4438 Ry                                         
                                                                                
   TITEL  = PAW_PBE N 08Apr2002                                                 
   LULTRA =        F    use ultrasoft PP ?                                      
   IUNSCR =        1    unscreen: 0-lin 1-nonlin 2-no                           
   RPACOR =    1.200    partial core radius                                     
   POMASS =   14.001; ZVAL   =    5.000    mass and valenz                      
   RCORE  =    1.500    outmost cutoff radius                                   
   RWIGS  =    1.400; RWIGS  =    0.741    wigner-seitz radius (au A)           
   ENMAX  =  400.000; ENMIN  =  300.000 eV                                      
   ICORE  =        2    local potential                                         
   LCOR   =        T    correct aug charges                                     
   LPAW   =        T    paw PP                                                  
   EAUG   =  627.112                                                            
   DEXC   =    0.000                                                            
   RMAX   =    1.529    core radius for proj-oper                               
   RAUG   =    1.300    factor for augmentation sphere                          
   RDEP   =    1.514    radius for radial grids                                 
   RDEPT  =    1.338    core radius for aug-charge                              
                                                                                
   Atomic configuration                                                         
    4 entries                                                                   
     n  l   j            E        occ.                                          
     1  0  0.50      -384.7179   2.0000                                         
     2  0  0.50       -18.5828   2.0000                                         
     2  1  0.50        -7.0898   3.0000                                         
     3  2  1.50        -6.8029   0.0000                                         
   Description                                                                  
     l       E           TYP  RCUT    TYP  RCUT                                 
     0    -18.5828119     23  1.200                                             
     0    -13.5018863     23  1.200                                             
     1     -7.0897853     23  1.500                                             
     1      9.5240782     23  1.500                                             
     2     -6.8029130      7  1.500                                             
  local pseudopotential read in
  partial core-charges read in
  partial kinetic energy density read in
  atomic valenz-charges read in
  non local Contribution for L=           0  read in
    real space projection operators read in
  non local Contribution for L=           0  read in
    real space projection operators read in
  non local Contribution for L=           1  read in
    real space projection operators read in
  non local Contribution for L=           1  read in
    real space projection operators read in
    PAW grid and wavefunctions read in
 
   number of l-projection  operators is LMAX  =           4
   number of lm-projection operators is LMMAX =           8
 
 POTCAR:    PAW_PBE O 08Apr2002                   
   VRHFIN =O: s2p4                                                              
   LEXCH  = PE                                                                  
   EATOM  =   432.3788 eV,   31.7789 Ry                                         
                                                                                
   TITEL  = PAW_PBE O 08Apr2002                                                 
   LULTRA =        F    use ultrasoft PP ?                                      
   IUNSCR =        1    unscreen: 0-lin 1-nonlin 2-no                           
   RPACOR =    1.200    partial core radius                                     
   POMASS =   16.000; ZVAL   =    6.000    mass and valenz                      
   RCORE  =    1.520    outmost cutoff radius                                   
   RWIGS  =    1.550; RWIGS  =    0.820    wigner-seitz radius (au A)           
   ENMAX  =  400.000; ENMIN  =  300.000 eV                                      
   ICORE  =        2    local potential                                         
   LCOR   =        T    correct aug charges                                     
   LPAW   =        T    paw PP                                                  
   EAUG   =  605.392                                                            
   DEXC   =    0.000                                                            
   RMAX   =    1.553    core radius for proj-oper                               
   RAUG   =    1.300    factor for augmentation sphere                          
   RDEP   =    1.550    radius for radial grids                                 
   RDEPT  =    1.329    core radius for aug-charge                              
                                                                                
   Atomic configuration                                                         
    4 entries                                                                   
     n  l   j            E        occ.                                          
     1  0  0.50      -514.6923   2.0000                                         
     2  0  0.50       -23.9615   2.0000                                         
     2  1  0.50        -9.0305   4.0000                                         
     3  2  1.50        -9.5241   0.0000                                         
   Description                                                                  
     l       E           TYP  RCUT    TYP  RCUT                                 
     0    -23.9615318     23  1.200                                             
     0     -9.5240782     23  1.200                                             
     1     -9.0304911     23  1.520                                             
     1      8.1634956     23  1.520                                             
     2     -9.5240782      7  1.500                                             
  local pseudopotential read in
  partial core-charges read in
  partial kinetic energy density read in
  kinetic energy density of atom read in
  atomic valenz-charges read in
  non local Contribution for L=           0  read in
    real space projection operators read in
  non local Contribution for L=           0  read in
    real space projection operators read in
  non local Contribution for L=           1  read in
    real space projection operators read in
  non local Contribution for L=           1  read in
    real space projection operators read in
    PAW grid and wavefunctions read in
 
   number of l-projection  operators is LMAX  =           4
   number of lm-projection operators is LMMAX =           8
 
 Optimization of the real space projectors (new method)

 maximal supplied QI-value         = 25.13
 optimisation between [QCUT,QGAM] = [ 12.32, 24.88] = [ 42.47,173.37] Ry 
 Optimized for a Real-space Cutoff    1.06 Angstroem

   l    n(q)    QCUT    max X(q) W(low)/X(q) W(high)/X(q)  e(spline) 
   0      8    12.315   115.676    0.34E-03    0.18E-03    0.23E-06
   0      8    12.315    87.132    0.34E-03    0.18E-03    0.22E-06
   1      7    12.315     4.429    0.45E-03    0.12E-03    0.18E-06
   1      7    12.315     2.733    0.35E-03    0.97E-04    0.15E-06
 Optimization of the real space projectors (new method)

 maximal supplied QI-value         = 16.25
 optimisation between [QCUT,QGAM] = [ 12.51, 25.03] = [ 43.85,175.40] Ry 
 Optimized for a Real-space Cutoff    1.31 Angstroem

   l    n(q)    QCUT    max X(q) W(low)/X(q) W(high)/X(q)  e(spline) 
   2      9    12.514    65.824    0.30E-03    0.46E-03    0.43E-06
   2      9    12.514    61.429    0.31E-03    0.46E-03    0.44E-06
   0     10    12.514    56.174    0.90E-04    0.33E-03    0.30E-06
   0     10    12.514    31.263    0.81E-04    0.30E-03    0.28E-06
   1      9    12.514    19.828    0.38E-03    0.65E-04    0.24E-06
   1      9    12.514    15.139    0.32E-03    0.60E-04    0.20E-06
 Optimization of the real space projectors (new method)

 maximal supplied QI-value         = 34.20
 optimisation between [QCUT,QGAM] = [ 12.31, 24.97] = [ 42.46,174.58] Ry 
 Optimized for a Real-space Cutoff    1.00 Angstroem

   l    n(q)    QCUT    max X(q) W(low)/X(q) W(high)/X(q)  e(spline) 
   0      7    12.313    19.460    0.14E-03    0.42E-03    0.16E-06
   0      7    12.313    12.209    0.12E-03    0.40E-03    0.16E-06
   1      7    12.313     4.655    0.33E-03    0.59E-03    0.89E-07
 Optimization of the real space projectors (new method)

 maximal supplied QI-value         = 25.13
 optimisation between [QCUT,QGAM] = [ 12.32, 24.88] = [ 42.47,173.37] Ry 
 Optimized for a Real-space Cutoff    1.20 Angstroem

   l    n(q)    QCUT    max X(q) W(low)/X(q) W(high)/X(q)  e(spline) 
   0      9    12.315    79.467    0.14E-03    0.22E-04    0.37E-06
   0      9    12.315    66.151    0.14E-03    0.23E-04    0.36E-06
   1      8    12.315    22.077    0.30E-03    0.54E-03    0.45E-06
   1      8    12.315    15.894    0.30E-03    0.55E-03    0.45E-06
 Optimization of the real space projectors (new method)

 maximal supplied QI-value         = 24.76
 optimisation between [QCUT,QGAM] = [ 12.38, 25.00] = [ 42.90,175.06] Ry 
 Optimized for a Real-space Cutoff    1.13 Angstroem

   l    n(q)    QCUT    max X(q) W(low)/X(q) W(high)/X(q)  e(spline) 
   0      8    12.378    20.381    0.16E-03    0.54E-05    0.27E-06
   0      8    12.378    15.268    0.17E-03    0.61E-05    0.29E-06
   1      8    12.378     5.964    0.38E-03    0.23E-03    0.28E-06
   1      8    12.378     5.382    0.33E-03    0.20E-03    0.25E-06
  PAW_PBE C 08Apr2002                   :
 energy of atom  1       EATOM= -147.1560
 kinetic energy error for atom=    0.0057 (will be added to EATOM!!)
  PAW_PBE Co 02Aug2007                  :
 energy of atom  2       EATOM= -813.3670
 kinetic energy error for atom=    0.0018 (will be added to EATOM!!)
  PAW_PBE H 15Jun2001                   :
 energy of atom  3       EATOM=  -12.4884
 kinetic energy error for atom=    0.0004 (will be added to EATOM!!)
  PAW_PBE N 08Apr2002                   :
 energy of atom  4       EATOM= -264.5486
 kinetic energy error for atom=    0.0103 (will be added to EATOM!!)
  PAW_PBE O 08Apr2002                   :
 energy of atom  5       EATOM= -432.3788
 kinetic energy error for atom=    0.0168 (will be added to EATOM!!)
 
 
 POSCAR: CoH_exp7	
  positions in direct lattice
  velocities in cartesian coordinates
 exchange correlation table for  LEXCH =        8
   RHO(1)=    0.500       N(1)  =     2000
   RHO(2)=  100.500       N(2)  =     4000
 


--------------------------------------------------------------------------------------------------------


 ion  position               nearest neighbor table
   1  0.902  0.968  0.118- 107 1.09 117 1.35  65 1.40
   2  0.933  0.981  0.408- 112 1.08 118 1.35  65 1.40
   3  0.902  0.812  0.935- 116 1.09 119 1.35  66 1.40
   4  0.597  0.468  0.618- 110 1.09 120 1.35  67 1.40
   5  0.567  0.299  0.144- 111 1.08 121 1.35  68 1.40
   6  0.067  0.799  0.144- 115 1.08 122 1.35  69 1.40
   7  0.567  0.481  0.909- 101 1.08 123 1.35  67 1.40
   8  0.598  0.312  0.435- 113 1.09 124 1.35  68 1.40
   9  0.433  0.481  0.409- 114 1.08 125 1.35  70 1.40
  10  0.097  0.812  0.434- 104 1.09 126 1.35  69 1.40
  11  0.067  0.981  0.908- 105 1.08 127 1.35  71 1.40
  12  0.433  0.299  0.644- 102 1.08 128 1.35  72 1.40
  13  0.933  0.799  0.644- 108 1.08 129 1.35  66 1.40
  14  0.098  0.968  0.618- 109 1.09 130 1.35  71 1.40
  15  0.402  0.312  0.935- 106 1.09 131 1.35  72 1.40
  16  0.402  0.468  0.118- 103 1.09 132 1.35  70 1.40
  17  0.823  0.037  0.445- 141 1.23 133 1.42  33 1.48
  18  0.844  0.080  0.093- 142 1.23 133 1.42  34 1.48
  19  0.844  0.701  0.961- 143 1.23 134 1.42  35 1.48
  20  0.656  0.580  0.593- 144 1.23 135 1.42  36 1.48
  21  0.657  0.201  0.461- 145 1.23 136 1.42  37 1.48
  22  0.177  0.743  0.108- 146 1.23 137 1.42  38 1.48
  23  0.677  0.537  0.945- 147 1.23 135 1.42  39 1.48
  24  0.678  0.244  0.108- 148 1.23 136 1.42  40 1.48
  25  0.322  0.536  0.445- 149 1.23 138 1.42  41 1.48
  26  0.156  0.700  0.460- 150 1.23 137 1.42  42 1.48
  27  0.156  0.080  0.593- 151 1.23 139 1.42  43 1.48
  28  0.344  0.200  0.960- 152 1.23 140 1.42  44 1.48
  29  0.822  0.744  0.608- 153 1.23 134 1.42  45 1.48
  30  0.177  0.036  0.945- 154 1.23 139 1.42  46 1.48
  31  0.323  0.244  0.608- 155 1.23 140 1.42  47 1.48
  32  0.344  0.579  0.092- 156 1.23 138 1.42  48 1.48
  33  0.780  0.079  0.445-  49 1.39  73 1.42  17 1.48
  34  0.802  0.122  0.102-  50 1.39  73 1.41  18 1.48
  35  0.801  0.659  0.952-  51 1.39  74 1.41  19 1.48
  36  0.698  0.622  0.601-  52 1.39  75 1.41  20 1.48
  37  0.699  0.159  0.453-  53 1.39  76 1.41  21 1.48
  38  0.220  0.701  0.108-  54 1.39  77 1.42  22 1.48
  39  0.720  0.579  0.945-  55 1.39  75 1.42  23 1.48
  40  0.721  0.202  0.109-  56 1.39  76 1.42  24 1.48
  41  0.280  0.578  0.445-  57 1.39  78 1.42  25 1.48
  42  0.198  0.658  0.452-  58 1.39  77 1.41  26 1.48
  43  0.198  0.122  0.601-  59 1.39  79 1.41  27 1.48
  44  0.301  0.159  0.952-  60 1.39  80 1.41  28 1.48
  45  0.779  0.702  0.609-  61 1.39  74 1.42  29 1.48
  46  0.220  0.079  0.945-  62 1.39  79 1.42  30 1.48
  47  0.280  0.202  0.608-  63 1.39  80 1.42  31 1.48
  48  0.301  0.621  0.101-  64 1.39  78 1.41  32 1.48
  49  0.749  0.078  0.614-  88 1.09  33 1.39  53 1.41
  50  0.792  0.163  0.937-  99 1.09  34 1.39  56 1.41
  51  0.791  0.618  0.117-  93 1.09  35 1.39  55 1.41
  52  0.708  0.663  0.437-  90 1.09  36 1.39  61 1.41
  53  0.709  0.118  0.617-  98 1.09  37 1.39  49 1.41
  54  0.251  0.702  0.940-  96 1.09  38 1.39  64 1.41
  55  0.751  0.578  0.114-  86 1.09  39 1.39  51 1.41
  56  0.752  0.203  0.940-  87 1.09  40 1.39  50 1.41
  57  0.249  0.577  0.613-  95 1.09  41 1.39  58 1.41
  58  0.208  0.617  0.616-  91 1.09  42 1.39  57 1.41
  59  0.208  0.163  0.437-  92 1.09  43 1.39  63 1.41
  60  0.292  0.117  0.117-  85 1.09  44 1.39  62 1.41
  61  0.748  0.703  0.440-  89 1.09  45 1.39  52 1.41
  62  0.251  0.078  0.113- 100 1.09  46 1.39  60 1.41
  63  0.249  0.203  0.440-  94 1.09  47 1.39  59 1.41
  64  0.292  0.663  0.936-  97 1.09  48 1.39  54 1.41
  65  0.893  0.999  0.263-   2 1.40   1 1.40 133 1.42
  66  0.893  0.781  0.789-  13 1.40   3 1.40 134 1.42
  67  0.607  0.499  0.763-   7 1.40   4 1.40 135 1.42
  68  0.607  0.281  0.290-   5 1.40   8 1.40 136 1.42
  69  0.106  0.781  0.289-   6 1.40  10 1.40 137 1.42
  70  0.393  0.499  0.263-   9 1.40  16 1.40 138 1.42
  71  0.107  0.999  0.763-  11 1.40  14 1.40 139 1.42
  72  0.393  0.281  0.789-  12 1.40  15 1.40 140 1.42
  73  0.771  0.120  0.275-  34 1.41  33 1.42  76 1.43
  74  0.770  0.660  0.779-  35 1.41  45 1.42  75 1.43
  75  0.729  0.620  0.775-  36 1.41  39 1.42  74 1.43
  76  0.730  0.160  0.279-  37 1.41  40 1.42  73 1.43
  77  0.229  0.660  0.278-  42 1.41  38 1.42  78 1.43
  78  0.270  0.620  0.275-  48 1.41  41 1.42  77 1.43
  79  0.229  0.120  0.775-  43 1.41  46 1.42  80 1.43
  80  0.270  0.160  0.778-  44 1.41  47 1.42  79 1.43
  81  0.989  0.890  0.026- 119 1.96 117 1.96 127 1.96 122 1.97
  82  0.011  0.890  0.526- 126 1.96 118 1.96 130 1.97 129 1.97
  83  0.511  0.390  0.526- 124 1.96 125 1.96 120 1.96 128 1.97
  84  0.489  0.390  0.026- 131 1.96 132 1.96 123 1.96 121 1.97
  85  0.316  0.117  0.249-  60 1.09
  86  0.743  0.546  0.243-  55 1.09
  87  0.744  0.235  0.811-  56 1.09
  88  0.757  0.046  0.743-  49 1.09
  89  0.756  0.735  0.311-  61 1.09
  90  0.683  0.664  0.305-  52 1.09
  91  0.183  0.617  0.748-  58 1.09
  92  0.184  0.163  0.305-  59 1.09
  93  0.816  0.617  0.249-  51 1.09
  94  0.257  0.235  0.311-  63 1.09
  95  0.257  0.545  0.742-  57 1.09
  96  0.243  0.734  0.810-  54 1.09
  97  0.316  0.663  0.805-  64 1.09
  98  0.684  0.117  0.749-  53 1.09
  99  0.817  0.164  0.805-  50 1.09
 100  0.243  0.046  0.242-  62 1.09
 101  0.560  0.493  0.048-   7 1.08
 102  0.440  0.287  0.505-  12 1.08
 103  0.382  0.470  0.978-  16 1.09
 104  0.118  0.810  0.575-  10 1.09
 105  0.060  0.993  0.047-  11 1.08
 106  0.382  0.310  0.075-  15 1.09
 107  0.882  0.970  0.977-   1 1.09
 108  0.940  0.787  0.505-  13 1.08
 109  0.118  0.970  0.477-  14 1.09
 110  0.618  0.470  0.477-   4 1.09
 111  0.560  0.287  0.005-   5 1.08
 112  0.940  0.993  0.548-   2 1.08
 113  0.618  0.311  0.575-   8 1.09
 114  0.440  0.493  0.548-   9 1.08
 115  0.060  0.786  0.004-   6 1.08
 116  0.882  0.811  0.075-   3 1.09
 117  0.945  0.934  0.174-   1 1.35 118 1.37  81 1.96
 118  0.963  0.942  0.353-   2 1.35 117 1.37  82 1.96
 119  0.945  0.846  0.878-   3 1.35 129 1.37  81 1.96
 120  0.555  0.434  0.674-   4 1.35 123 1.37  83 1.96
 121  0.537  0.338  0.200-   5 1.35 124 1.37  84 1.97
 122  0.037  0.838  0.199-   6 1.35 126 1.37  81 1.97
 123  0.537  0.442  0.853-   7 1.35 120 1.37  84 1.96
 124  0.555  0.346  0.378-   8 1.35 121 1.37  83 1.96
 125  0.463  0.442  0.353-   9 1.35 132 1.37  83 1.96
 126  0.055  0.846  0.377-  10 1.35 122 1.37  82 1.96
 127  0.037  0.942  0.853-  11 1.35 130 1.37  81 1.96
 128  0.463  0.338  0.699-  12 1.35 131 1.37  83 1.97
 129  0.963  0.838  0.699-  13 1.35 119 1.37  82 1.97
 130  0.055  0.934  0.674-  14 1.35 127 1.37  82 1.97
 131  0.445  0.346  0.878-  15 1.35 128 1.37  84 1.96
 132  0.445  0.434  0.175-  16 1.35 125 1.37  84 1.96
 133  0.853  0.039  0.267-  18 1.42  17 1.42  65 1.42
 134  0.852  0.741  0.786-  19 1.42  29 1.42  66 1.42
 135  0.647  0.539  0.767-  20 1.42  23 1.42  67 1.42
 136  0.648  0.241  0.286-  21 1.42  24 1.42  68 1.42
 137  0.147  0.741  0.286-  26 1.42  22 1.42  69 1.42
 138  0.352  0.539  0.267-  32 1.42  25 1.42  70 1.42
 139  0.148  0.039  0.767-  27 1.42  30 1.42  71 1.42
 140  0.352  0.241  0.786-  28 1.42  31 1.42  72 1.42
 141  0.832  0.001  0.591-  17 1.23
 142  0.871  0.079  0.943-  18 1.23
 143  0.870  0.701  0.111-  19 1.23
 144  0.629  0.579  0.443-  20 1.23
 145  0.630  0.201  0.611-  21 1.23
 146  0.168  0.779  0.962-  22 1.23
 147  0.668  0.501  0.091-  23 1.23
 148  0.668  0.280  0.962-  24 1.23
 149  0.332  0.500  0.591-  25 1.23
 150  0.129  0.701  0.610-  26 1.23
 151  0.129  0.079  0.442-  27 1.23
 152  0.370  0.201  0.111-  28 1.23
 153  0.832  0.780  0.462-  29 1.23
 154  0.168  0.001  0.091-  30 1.23
 155  0.332  0.280  0.462-  31 1.23
 156  0.370  0.579  0.942-  32 1.23
 

IMPORTANT INFORMATION: All symmetrisations will be switched off!
NOSYMM: (Re-)initialisation of all symmetry stuff for point group C_1.


----------------------------------------------------------------------------------------

                                     Primitive cell                                     

  volume of cell :    4141.7216

  direct lattice vectors                    reciprocal lattice vectors
    24.520972635 -0.000277308 -0.000059291     0.040781417 -0.000000378 -0.000003475
     0.000534523 24.652286085  3.588974492     0.000000457  0.040920139 -0.002444983
     0.000592827  0.412970547  6.911627350     0.000000113 -0.021248445  0.145953323

  length of vectors
    24.520972637 24.912164648  6.923953903     0.040781417  0.040993118  0.147491929

  position of ions in fractional coordinates (direct lattice)
     0.902468518  0.968221906  0.117573089
     0.932772012  0.981059957  0.408426464
     0.902363428  0.812123228  0.934542610
     0.597473374  0.468218703  0.617656421
     0.567408346  0.298982330  0.144286219
     0.067078957  0.798857655  0.143645274
     0.567218656  0.481047649  0.908619296
     0.597615535  0.312110410  0.434868007
     0.432555930  0.480903975  0.408526015
     0.097422977  0.811794380  0.434295116
     0.067254253  0.981025554  0.908193743
     0.432737110  0.298934188  0.644082610
     0.932588246  0.799006620  0.643958719
     0.097587849  0.968085611  0.617500495
     0.402467288  0.311917342  0.934786279
     0.402326425  0.467915709  0.117775568
     0.822848445  0.036598606  0.445321195
     0.844103424  0.079791620  0.092808821
     0.843505592  0.700772392  0.960635187
     0.655857403  0.579776573  0.592808237
     0.656505164  0.200790893  0.460956244
     0.177229592  0.743408417  0.107591789
     0.677149119  0.536578082  0.945268692
     0.677666412  0.243848159  0.108337634
     0.322488970  0.536242048  0.445101505
     0.155818751  0.700213260  0.459910965
     0.156021177  0.079646847  0.592620728
     0.343815696  0.200464399  0.960437164
     0.822351453  0.743812066  0.608041354
     0.177235541  0.036464173  0.945113760
     0.322561412  0.243626909  0.607993313
     0.343682944  0.579339015  0.092471656
     0.780152181  0.078838180  0.445082967
     0.801771005  0.121818223  0.101525410
     0.801073971  0.658792648  0.952225640
     0.698194786  0.621801111  0.601425971
     0.698925660  0.158804865  0.452512090
     0.220023588  0.701247234  0.108152257
     0.719838696  0.578828368  0.944961306
     0.720508345  0.201725627  0.108869123
     0.279680823  0.578405320  0.444621561
     0.198293378  0.658263294  0.451590159
     0.198400416  0.121641830  0.601217879
     0.301346184  0.158526600  0.952008144
     0.779497764  0.701694528  0.608598486
     0.219996614  0.078652875  0.944781776
     0.279719051  0.201502396  0.608497064
     0.301320521  0.621349806  0.101025286
     0.749062525  0.077880976  0.613693697
     0.792192117  0.163074182  0.936911581
     0.791444806  0.617591578  0.116983848
     0.707779960  0.663041173  0.436772101
     0.708567260  0.117593995  0.617242586
     0.251189276  0.702248913  0.939671446
     0.750944739  0.577880264  0.113516200
     0.751663680  0.202753892  0.940345477
     0.248507972  0.577426791  0.613064293
     0.207924108  0.617070265  0.616354520
     0.207993026  0.162888911  0.436606563
     0.291686386  0.117319883  0.116728637
     0.748329931  0.702708614  0.440123454
     0.251117236  0.077669132  0.113323452
     0.248546491  0.202542680  0.440007331
     0.291719645  0.662564751  0.936316061
     0.893377387  0.999006097  0.263315016
     0.893165266  0.781243823  0.789210205
     0.606594852  0.498991026  0.763402754
     0.606828775  0.281237735  0.289540188
     0.106472138  0.780921092  0.288821067
     0.393139367  0.498722418  0.263386467
     0.106683865  0.998903801  0.763139944
     0.393338235  0.281061679  0.789327938
     0.770833900  0.120098694  0.275144343
     0.770136590  0.660472773  0.778636857
     0.729143447  0.620086642  0.774989553
     0.729853375  0.160492313  0.278876744
     0.229319155  0.659998290  0.278137225
     0.270354930  0.619636022  0.274585556
     0.229352609  0.119898872  0.774799057
     0.270375584  0.160259317  0.778473413
     0.988624623  0.890085827  0.025889784
     0.011319032  0.889989346  0.525821280
     0.511287930  0.390061281  0.526157575
     0.488690835  0.389969079  0.026214979
     0.316127737  0.116779091  0.248531534
     0.742838918  0.545844876  0.242710699
     0.743566310  0.234800022  0.811177361
     0.757173690  0.045848307  0.742860332
     0.756422442  0.734736796  0.310869985
     0.683322200  0.663541535  0.305043830
     0.183458377  0.616560785  0.748098517
     0.183513973  0.163408348  0.304920911
     0.815858957  0.617081856  0.248800620
     0.256650378  0.234572535  0.310789220
     0.256616680  0.545432952  0.742333641
     0.243110217  0.734279122  0.810421031
     0.316184218  0.663048965  0.804596106
     0.684163896  0.117089622  0.749141971
     0.816657138  0.163578095  0.805178012
     0.242993420  0.045641337  0.242498749
     0.560084085  0.493364953  0.047964451
     0.439802176  0.286555194  0.504814551
     0.381975421  0.469521887  0.977523042
     0.117811797  0.810142904  0.574508937
     0.060101196  0.993383129  0.047446443
     0.382119913  0.310300060  0.075051965
     0.882141422  0.969930578  0.977215779
     0.939647351  0.786561870  0.504813375
     0.117949941  0.969763849  0.477209472
     0.617776689  0.469917970  0.477257013
     0.560353256  0.286533364  0.005143885
     0.939924970  0.993374764  0.547743055
     0.617936008  0.310572823  0.575118109
     0.439644916  0.493276357  0.547778088
     0.059953558  0.786487474  0.004398814
     0.882024361  0.810575223  0.074779919
     0.944575480  0.933736560  0.174263647
     0.963348064  0.941852851  0.352761573
     0.944546035  0.846480294  0.877520424
     0.555376895  0.433725139  0.674470100
     0.536698057  0.338166770  0.199519644
     0.036540948  0.838133985  0.199057616
     0.536633657  0.441839453  0.853027615
     0.555421421  0.346455109  0.377865703
     0.463244681  0.441757976  0.352993051
     0.055344213  0.846302601  0.377458904
     0.036655728  0.941824681  0.852619683
     0.463356787  0.338156246  0.699445556
     0.963289305  0.838194602  0.699184271
     0.055444918  0.933636005  0.674200408
     0.444596243  0.346358050  0.877868514
     0.444514641  0.433541728  0.174567111
     0.852534114  0.039425908  0.266942210
     0.852171531  0.740920934  0.786112182
     0.647445375  0.539408825  0.766943208
     0.647841762  0.240940812  0.286438983
     0.147360363  0.740502685  0.285602322
     0.352213583  0.539079655  0.266795803
     0.147563706  0.039292474  0.766744180
     0.352397648  0.240699279  0.786073304
     0.832299619  0.000690756  0.591232343
     0.870616911  0.079397439  0.942507271
     0.869931822  0.701260926  0.111030803
     0.629317199  0.579386941  0.442572298
     0.630073453  0.201289240  0.611358382
     0.167827075  0.779311477  0.961661338
     0.667717680  0.500667790  0.091207486
     0.668207316  0.279721878  0.962374117
     0.331984152  0.500382624  0.591102226
     0.129212225  0.700582493  0.610023514
     0.129479706  0.079288166  0.442362982
     0.370329431  0.200857900  0.110708306
     0.831815068  0.779681130  0.462051999
     0.167729133  0.000601894  0.091106433
     0.332002941  0.279518687  0.462056251
     0.370142971  0.578879469  0.942092656

  ion indices of the primitive-cell ions
   primitive index   ion index
                 1           1
                 2           2
                 3           3
                 4           4
                 5           5
                 6           6
                 7           7
                 8           8
                 9           9
                10          10
                11          11
                12          12
                13          13
                14          14
                15          15
                16          16
                17          17
                18          18
                19          19
                20          20
                21          21
                22          22
                23          23
                24          24
                25          25
                26          26
                27          27
                28          28
                29          29
                30          30
                31          31
                32          32
                33          33
                34          34
                35          35
                36          36
                37          37
                38          38
                39          39
                40          40
                41          41
                42          42
                43          43
                44          44
                45          45
                46          46
                47          47
                48          48
                49          49
                50          50
                51          51
                52          52
                53          53
                54          54
                55          55
                56          56
                57          57
                58          58
                59          59
                60          60
                61          61
                62          62
                63          63
                64          64
                65          65
                66          66
                67          67
                68          68
                69          69
                70          70
                71          71
                72          72
                73          73
                74          74
                75          75
                76          76
                77          77
                78          78
                79          79
                80          80
                81          81
                82          82
                83          83
                84          84
                85          85
                86          86
                87          87
                88          88
                89          89
                90          90
                91          91
                92          92
                93          93
                94          94
                95          95
                96          96
                97          97
                98          98
                99          99
               100         100
               101         101
               102         102
               103         103
               104         104
               105         105
               106         106
               107         107
               108         108
               109         109
               110         110
               111         111
               112         112
               113         113
               114         114
               115         115
               116         116
               117         117
               118         118
               119         119
               120         120
               121         121
               122         122
               123         123
               124         124
               125         125
               126         126
               127         127
               128         128
               129         129
               130         130
               131         131
               132         132
               133         133
               134         134
               135         135
               136         136
               137         137
               138         138
               139         139
               140         140
               141         141
               142         142
               143         143
               144         144
               145         145
               146         146
               147         147
               148         148
               149         149
               150         150
               151         151
               152         152
               153         153
               154         154
               155         155
               156         156

----------------------------------------------------------------------------------------

 
 

Automatic generation of k-mesh.
 generate k-points for:    1    1    4
Space group operators:
 irot       det(A)        alpha          n_x          n_y          n_z        tau_x        tau_y        tau_z
    1     1.000000     0.000000     1.000000     0.000000     0.000000     0.000000     0.000000     0.000000
 
 Subroutine IBZKPT returns following result:
 ===========================================
 
 Found      3 irreducible k-points:
 
 Following reciprocal coordinates:
            Coordinates               Weight
  0.000000  0.000000  0.000000      1.000000
 -0.000000  0.000000  0.250000      2.000000
 -0.000000  0.000000  0.500000      1.000000
 
 Following cartesian coordinates:
            Coordinates               Weight
  0.000000  0.000000  0.000000      1.000000
  0.000000 -0.005312  0.036488      2.000000
  0.000000 -0.010624  0.072977      1.000000
 


--------------------------------------------------------------------------------------------------------




 Dimension of arrays:
   k-points           NKPTS =      3   k-points in BZ     NKDIM =      3   number of bands    NBANDS=    384
   number of dos      NEDOS =    301   number of ions     NIONS =    156
   non local maximal  LDIM  =      6   non local SUM 2l+1 LMDIM =     18
   total plane-waves  NPLWV = 945000
   max r-space proj   IRMAX =   2182   max aug-charges    IRDMAX=   9197
   dimension x,y,z NGX =   150 NGY =  150 NGZ =   42
   dimension x,y,z NGXF=   300 NGYF=  300 NGZF=   84
   support grid    NGXF=   300 NGYF=  300 NGZF=   84
   ions per type =              80   4  32  24  16
   NGX,Y,Z   is equivalent  to a cutoff of  10.17, 10.01, 10.08 a.u.
   NGXF,Y,Z  is equivalent  to a cutoff of  20.34, 20.02, 20.17 a.u.

 SYSTEM =  flex_MOF                                
 POSCAR =  CoH_exp7	                               

 Startparameter for this run:
   NWRITE =      2    write-flag & timer
   PREC   = normal    normal or accurate (medium, high low for compatibility)
   ISTART =      0    job   : 0-new  1-cont  2-samecut
   ICHARG =      2    charge: 1-file 2-atom 10-const
   ISPIN  =      2    spin polarized calculation?
   LNONCOLLINEAR =      F non collinear calculations
   LSORBIT =      F    spin-orbit coupling
   INIWAV =      1    electr: 0-lowe 1-rand  2-diag
   LASPH  =      F    aspherical Exc in radial PAW
   METAGGA=      F    non-selfconsistent MetaGGA calc.

 Electronic Relaxation 1
   ENCUT  =  600.0 eV  44.10 Ry    6.64 a.u.  48.97 49.76 13.83*2*pi/ulx,y,z
   ENINI  =  600.0     initial cutoff
   ENAUG  =  644.9 eV  augmentation charge cutoff
   NELM   =     80;   NELMIN=  8; NELMDL= -5     # of ELM steps 
   EDIFF  = 0.1E-05   stopping-criterion for ELM
   LREAL  =      T    real-space projection
   NLSPLINE    = F    spline interpolate recip. space projectors
   LCOMPAT=      F    compatible to vasp.4.4
   GGA_COMPAT  = T    GGA compatible to vasp.4.4-vasp.4.6
   LMAXPAW     = -100 max onsite density
   LMAXMIX     =    2 max onsite mixed and CHGCAR
   VOSKOWN=      0    Vosko Wilk Nusair interpolation
   ROPT   =   -0.00050  -0.00050  -0.00050  -0.00050
   ROPT   =   -0.00050
 Ionic relaxation
   EDIFFG = -.1E-01   stopping-criterion for IOM
   NSW    =    500    number of steps for IOM
   NBLOCK =      1;   KBLOCK =    500    inner block; outer block 
   IBRION =      2    ionic relax: 0-MD 1-quasi-New 2-CG
   NFREE  =      1    steps in history (QN), initial steepest desc. (CG)
   ISIF   =      4    stress and relaxation
   IWAVPR =     11    prediction:  0-non 1-charg 2-wave 3-comb
   ISYM   =      0    0-nonsym 1-usesym 2-fastsym
   LCORR  =      T    Harris-Foulkes like correction to forces

   POTIM  = 0.5000    time-step for ionic-motion
   TEIN   =    0.0    initial temperature
   TEBEG  =    0.0;   TEEND  =   0.0 temperature during run
   SMASS  =  -3.00    Nose mass-parameter (am)
   estimated Nose-frequenzy (Omega)   =  0.10E-29 period in steps = 0.13E+47 mass=  -0.137E-25a.u.
   SCALEE = 1.0000    scale energy and forces
   NPACO  =    256;   APACO  = 16.0  distance and # of slots for P.C.
   PSTRESS=    0.0 pullay stress

  Mass of Ions in am
   POMASS =  12.01 58.93  1.00 14.00 16.00
  Ionic Valenz
   ZVAL   =   4.00  9.00  1.00  5.00  6.00
  Atomic Wigner-Seitz radii
   RWIGS  =  -1.00 -1.00 -1.00 -1.00 -1.00
  virtual crystal weights 
   VCA    =   1.00  1.00  1.00  1.00  1.00
   NELECT =     604.0000    total number of electrons
   NUPDOWN=      -1.0000    fix difference up-down

 DOS related values:
   EMIN   =  10.00;   EMAX   =-10.00  energy-range for DOS
   EFERMI =   0.00
   ISMEAR =     0;   SIGMA  =   0.05  broadening in eV -4-tet -1-fermi 0-gaus

 Electronic relaxation 2 (details)
   IALGO  =     38    algorithm
   LDIAG  =      T    sub-space diagonalisation (order eigenvalues)
   LSUBROT=      F    optimize rotation matrix (better conditioning)
   TURBO    =      0    0=normal 1=particle mesh
   IRESTART =      0    0=no restart 2=restart with 2 vectors
   NREBOOT  =      0    no. of reboots
   NMIN     =      0    reboot dimension
   EREF     =   0.00    reference energy to select bands
   IMIX   =      4    mixing-type and parameters
     AMIX     =   0.40;   BMIX     =  1.00
     AMIX_MAG =   1.60;   BMIX_MAG =  1.00
     AMIN     =   0.10
     WC   =   100.;   INIMIX=   1;  MIXPRE=   1;  MAXMIX= -45

 Intra band minimization:
   WEIMIN = 0.0010     energy-eigenvalue tresh-hold
   EBREAK =  0.65E-09  absolut break condition
   DEPER  =   0.30     relativ break condition  

   TIME   =   0.40     timestep for ELM

  volume/ion in A,a.u.               =      26.55       179.16
  Fermi-wavevector in a.u.,A,eV,Ry     =   0.861708  1.628392 10.102882  0.742541
  Thomas-Fermi vector in A             =   1.979402
 
 Write flags
   LWAVE        =      T    write WAVECAR
   LDOWNSAMPLE  =      F    k-point downsampling of WAVECAR
   LCHARG       =      T    write CHGCAR
   LVTOT        =      F    write LOCPOT, total local potential
   LVHAR        =      F    write LOCPOT, Hartree potential only
   LELF         =      F    write electronic localiz. function (ELF)
   LORBIT       =     11    0 simple, 1 ext, 2 COOP (PROOUT), +10 PAW based schemes


 Dipole corrections
   LMONO  =      F    monopole corrections only (constant potential shift)
   LDIPOL =      F    correct potential (dipole corrections)
   IDIPOL =      0    1-x, 2-y, 3-z, 4-all directions 
   EPSILON=  1.0000000 bulk dielectric constant

 Exchange correlation treatment:
   GGA     =    PE    GGA type
   LEXCH   =     8    internal setting for exchange type
   VOSKOWN=      0    Vosko Wilk Nusair interpolation
   LHFCALC =     F    Hartree Fock is set to
   LHFONE  =     F    Hartree Fock one center treatment
   AEXX    =    0.0000 exact exchange contribution

 Linear response parameters
   LEPSILON=     F    determine dielectric tensor
   LRPA    =     F    only Hartree local field effects (RPA)
   LNABLA  =     F    use nabla operator in PAW spheres
   LVEL    =     F    velocity operator in full k-point grid
   LINTERFAST=   F  fast interpolation
   KINTER  =     0    interpolate to denser k-point grid
   CSHIFT  =0.1000    complex shift for real part using Kramers Kronig
   OMEGAMAX=  -1.0    maximum frequency
   DEG_THRESHOLD= 0.2000000E-02 threshold for treating states as degnerate
   RTIME   =   -0.100 relaxation time in fs
  (WPLASMAI=    0.000 imaginary part of plasma frequency in eV, 0.658/RTIME)
   DFIELD  = 0.0000000 0.0000000 0.0000000 field for delta impulse in time
 
 Orbital magnetization related:
   ORBITALMAG=     F  switch on orbital magnetization
   LCHIMAG   =     F  perturbation theory with respect to B field
   DQ        =  0.001000  dq finite difference perturbation B field
   LLRAUG    =     F  two centre corrections for induced B field



--------------------------------------------------------------------------------------------------------


 conjugate gradient relaxation of ions
 charge density and potential will be updated during run
 spin polarized calculation
 Variant of blocked Davidson
 Davidson routine will perform the subspace rotation
 perform sub-space diagonalisation
    after iterative eigenvector-optimisation
 modified Broyden-mixing scheme, WC =      100.0
 initial mixing is a Kerker type mixing with AMIX =  0.4000 and BMIX =      1.0000
 Hartree-type preconditioning will be used
 using additional bands           82
 real space projection scheme for non local part
 use partial core corrections
 calculate Harris-corrections to forces 
   (improved forces if not selfconsistent)
 use gradient corrections 
 use of overlap-Matrix (Vanderbilt PP)
 Gauss-broadening in eV      SIGMA  =   0.05


--------------------------------------------------------------------------------------------------------


  energy-cutoff  :      600.00
  volume of cell :     4141.72
      direct lattice vectors                 reciprocal lattice vectors
    24.520972635 -0.000277308 -0.000059291     0.040781417 -0.000000378 -0.000003475
     0.000534523 24.652286085  3.588974492     0.000000457  0.040920139 -0.002444983
     0.000592827  0.412970547  6.911627350     0.000000113 -0.021248445  0.145953323

  length of vectors
    24.520972637 24.912164648  6.923953903     0.040781417  0.040993118  0.147491929


 
 k-points in units of 2pi/SCALE and weight: read from INCAR                         
   0.00000000  0.00000000  0.00000000       0.250
   0.00000003 -0.00531211  0.03648833       0.500
   0.00000006 -0.01062422  0.07297666       0.250
 
 k-points in reciprocal lattice and weights: read from INCAR                         
   0.00000000  0.00000000  0.00000000       0.250
  -0.00000000  0.00000000  0.25000000       0.500
  -0.00000000  0.00000000  0.50000000       0.250
 
 position of ions in fractional coordinates (direct lattice) 
   0.90246852  0.96822191  0.11757309
   0.93277201  0.98105996  0.40842646
   0.90236343  0.81212323  0.93454261
   0.59747337  0.46821870  0.61765642
   0.56740835  0.29898233  0.14428622
   0.06707896  0.79885766  0.14364527
   0.56721866  0.48104765  0.90861930
   0.59761553  0.31211041  0.43486801
   0.43255593  0.48090398  0.40852602
   0.09742298  0.81179438  0.43429512
   0.06725425  0.98102555  0.90819374
   0.43273711  0.29893419  0.64408261
   0.93258825  0.79900662  0.64395872
   0.09758785  0.96808561  0.61750049
   0.40246729  0.31191734  0.93478628
   0.40232642  0.46791571  0.11777557
   0.82284845  0.03659861  0.44532119
   0.84410342  0.07979162  0.09280882
   0.84350559  0.70077239  0.96063519
   0.65585740  0.57977657  0.59280824
   0.65650516  0.20079089  0.46095624
   0.17722959  0.74340842  0.10759179
   0.67714912  0.53657808  0.94526869
   0.67766641  0.24384816  0.10833763
   0.32248897  0.53624205  0.44510151
   0.15581875  0.70021326  0.45991097
   0.15602118  0.07964685  0.59262073
   0.34381570  0.20046440  0.96043716
   0.82235145  0.74381207  0.60804135
   0.17723554  0.03646417  0.94511376
   0.32256141  0.24362691  0.60799331
   0.34368294  0.57933901  0.09247166
   0.78015218  0.07883818  0.44508297
   0.80177101  0.12181822  0.10152541
   0.80107397  0.65879265  0.95222564
   0.69819479  0.62180111  0.60142597
   0.69892566  0.15880486  0.45251209
   0.22002359  0.70124723  0.10815226
   0.71983870  0.57882837  0.94496131
   0.72050835  0.20172563  0.10886912
   0.27968082  0.57840532  0.44462156
   0.19829338  0.65826329  0.45159016
   0.19840042  0.12164183  0.60121788
   0.30134618  0.15852660  0.95200814
   0.77949776  0.70169453  0.60859849
   0.21999661  0.07865288  0.94478178
   0.27971905  0.20150240  0.60849706
   0.30132052  0.62134981  0.10102529
   0.74906252  0.07788098  0.61369370
   0.79219212  0.16307418  0.93691158
   0.79144481  0.61759158  0.11698385
   0.70777996  0.66304117  0.43677210
   0.70856726  0.11759399  0.61724259
   0.25118928  0.70224891  0.93967145
   0.75094474  0.57788026  0.11351620
   0.75166368  0.20275389  0.94034548
   0.24850797  0.57742679  0.61306429
   0.20792411  0.61707027  0.61635452
   0.20799303  0.16288891  0.43660656
   0.29168639  0.11731988  0.11672864
   0.74832993  0.70270861  0.44012345
   0.25111724  0.07766913  0.11332345
   0.24854649  0.20254268  0.44000733
   0.29171965  0.66256475  0.93631606
   0.89337739  0.99900610  0.26331502
   0.89316527  0.78124382  0.78921021
   0.60659485  0.49899103  0.76340275
   0.60682877  0.28123774  0.28954019
   0.10647214  0.78092109  0.28882107
   0.39313937  0.49872242  0.26338647
   0.10668386  0.99890380  0.76313994
   0.39333824  0.28106168  0.78932794
   0.77083390  0.12009869  0.27514434
   0.77013659  0.66047277  0.77863686
   0.72914345  0.62008664  0.77498955
   0.72985337  0.16049231  0.27887674
   0.22931916  0.65999829  0.27813722
   0.27035493  0.61963602  0.27458556
   0.22935261  0.11989887  0.77479906
   0.27037558  0.16025932  0.77847341
   0.98862462  0.89008583  0.02588978
   0.01131903  0.88998935  0.52582128
   0.51128793  0.39006128  0.52615757
   0.48869083  0.38996908  0.02621498
   0.31612774  0.11677909  0.24853153
   0.74283892  0.54584488  0.24271070
   0.74356631  0.23480002  0.81117736
   0.75717369  0.04584831  0.74286033
   0.75642244  0.73473680  0.31086998
   0.68332220  0.66354154  0.30504383
   0.18345838  0.61656079  0.74809852
   0.18351397  0.16340835  0.30492091
   0.81585896  0.61708186  0.24880062
   0.25665038  0.23457253  0.31078922
   0.25661668  0.54543295  0.74233364
   0.24311022  0.73427912  0.81042103
   0.31618422  0.66304897  0.80459611
   0.68416390  0.11708962  0.74914197
   0.81665714  0.16357810  0.80517801
   0.24299342  0.04564134  0.24249875
   0.56008409  0.49336495  0.04796445
   0.43980218  0.28655519  0.50481455
   0.38197542  0.46952189  0.97752304
   0.11781180  0.81014290  0.57450894
   0.06010120  0.99338313  0.04744644
   0.38211991  0.31030006  0.07505197
   0.88214142  0.96993058  0.97721578
   0.93964735  0.78656187  0.50481338
   0.11794994  0.96976385  0.47720947
   0.61777669  0.46991797  0.47725701
   0.56035326  0.28653336  0.00514389
   0.93992497  0.99337476  0.54774306
   0.61793601  0.31057282  0.57511811
   0.43964492  0.49327636  0.54777809
   0.05995356  0.78648747  0.00439881
   0.88202436  0.81057522  0.07477992
   0.94457548  0.93373656  0.17426365
   0.96334806  0.94185285  0.35276157
   0.94454604  0.84648029  0.87752042
   0.55537689  0.43372514  0.67447010
   0.53669806  0.33816677  0.19951964
   0.03654095  0.83813398  0.19905762
   0.53663366  0.44183945  0.85302761
   0.55542142  0.34645511  0.37786570
   0.46324468  0.44175798  0.35299305
   0.05534421  0.84630260  0.37745890
   0.03665573  0.94182468  0.85261968
   0.46335679  0.33815625  0.69944556
   0.96328930  0.83819460  0.69918427
   0.05544492  0.93363601  0.67420041
   0.44459624  0.34635805  0.87786851
   0.44451464  0.43354173  0.17456711
   0.85253411  0.03942591  0.26694221
   0.85217153  0.74092093  0.78611218
   0.64744538  0.53940883  0.76694321
   0.64784176  0.24094081  0.28643898
   0.14736036  0.74050268  0.28560232
   0.35221358  0.53907965  0.26679580
   0.14756371  0.03929247  0.76674418
   0.35239765  0.24069928  0.78607330
   0.83229962  0.00069076  0.59123234
   0.87061691  0.07939744  0.94250727
   0.86993182  0.70126093  0.11103080
   0.62931720  0.57938694  0.44257230
   0.63007345  0.20128924  0.61135838
   0.16782708  0.77931148  0.96166134
   0.66771768  0.50066779  0.09120749
   0.66820732  0.27972188  0.96237412
   0.33198415  0.50038262  0.59110223
   0.12921223  0.70058249  0.61002351
   0.12947971  0.07928817  0.44236298
   0.37032943  0.20085790  0.11070831
   0.83181507  0.77968113  0.46205200
   0.16772913  0.00060189  0.09110643
   0.33200294  0.27951869  0.46205625
   0.37014297  0.57887947  0.94209266
 
 position of ions in cartesian coordinates  (Angst):
  22.12999306 23.91718738  4.28749159
  22.87324350 24.35378017  6.34383538
  22.12781704 20.40638250  9.37384631
  14.65124470 11.79756964  5.94940057
  13.91364986  7.43002656  2.07025890
   1.64535343 19.75297012  3.85989837
  13.90954893 12.23399997  8.00647208
  14.65453881  7.87365707  4.12576648
  10.60719137 12.02397164  4.54950603
   2.38959753 20.19191137  5.91518955
   1.65020249 24.55956123  9.79796842
  10.61167644  7.63527827  5.52450050
  22.86877971 19.96301715  7.31836178
   2.39383251 24.12050588  7.74236208
   9.86961025  8.07540313  7.58033393
   9.86575519 11.58371820  2.49333453
  20.17732777  1.08591567  3.20919682
  20.69833463  2.00513908  0.92778003
  20.68452161 17.67212161  9.15455666
  16.08292278 14.53744842  6.17803407
  16.09852575  5.14013384  3.90655225
   4.34630313 18.37110006  3.41169769
  16.60520220 13.61805674  8.45906985
  16.61723411  6.05596691  1.62391400
   7.90829371 13.40331677  5.00091565
   3.82147426 17.45174407  5.69177150
   3.82618492  2.20816850  4.38181489
   8.43137179  5.33844263  7.35762500
  20.16561553 18.58754298  6.87202903
   4.34656764  1.28918021  6.66313259
   7.91001020  6.25695414  5.07657485
   8.42780454 14.32012389  2.71834219
  19.13039628  2.12713118  3.35914957
  19.66033018  3.04480234  1.13886075
  19.64402956 16.63376384  8.94577129
  17.12110415 15.57699647  6.38841912
  17.13869014  4.10158331  3.69750011
   5.39563134 17.33195010  3.26425348
  17.65201457 14.65948410  8.60857798
  17.66773778  5.01775781  1.47640822
   6.85861856 14.44255147  5.14892390
   4.86296607 16.41413349  5.48370131
   4.86539261  3.24697944  4.59195160
   7.38995063  4.30111087  7.14885558
  19.11477921 17.54949134  6.72472349
   5.39513307  2.32907922  6.81224968
   6.85945163  5.21870852  4.92887533
   7.38906427 15.35933008  2.92823987
  18.36814712  2.17317381  4.52109057
  19.42596382  4.40684859  7.06080582
  19.40739589 15.27313568  3.02502226
  17.35606636 16.52565841  5.39840189
  17.37518717  3.15366731  4.68815058
   6.16033779 17.70002807  9.01499741
  18.41427158 14.29274020  2.85853468
  18.43219036  5.38647351  7.22695150
   6.09432927 14.48799902  6.30962722
   5.09919660 15.46667132  6.47464987
   5.10053720  4.19583201  3.60225368
   7.15256581  2.94032793  1.22782561
  18.35041430 17.50492428  5.56392822
   6.15774757  1.96145127  1.06198712
   6.09497082  5.17478125  3.76807248
   7.15415867 16.72032586  8.84937839
  21.90717256 24.73627770  5.40528969
  21.90216651 19.58511911  8.25853803
  14.87501505 12.61636417  7.06718545
  14.88035375  7.05255640  3.01051296
   2.61138902 19.37073524  4.79892316
   9.64058237 12.40330956  3.61030784
   2.61697847 24.94038700  8.85957284
   9.64565428  7.25467303  6.46424044
  18.90182428  3.07412011  2.33268061
  18.88531287 16.60350428  7.75202207
  17.88009740 15.60639897  7.58187090
  17.89696574  4.07146791  2.50345168
   5.62364641 16.38526556  4.29108428
   6.62985982 15.38876525  4.12167488
   5.62447246  3.27568689  5.78542275
   6.63041945  4.27217014  5.95566870
  24.24252844 21.95306802  3.37337725
   0.27834112 22.15741752  6.82842913
  12.53779777  9.83304809  5.03649476
  11.98339858  9.62431980  1.58074827
   7.75196935  2.98142010  2.13685578
  18.21556843 13.55635042  3.63650520
  18.23357553  6.12314348  6.44920284
  18.56710023  1.43683506  5.29887730
  18.54879103 18.24111207  4.78552426
  16.75626048 16.48360038  4.48974241
   4.49935091 15.50852465  7.38338822
   4.50020922  4.15426182  2.69395722
  20.00613250 15.31499954  3.93425984
   6.29362652  5.91102486  2.98991890
   6.29322220 13.75265993  7.08826323
   5.96217191 18.43627158  8.23662279
   7.75397597 16.67785959  7.94071553
  16.77687088  3.19571070  5.59798123
  20.02579211  4.36486234  6.15211956
   5.95860316  1.22524075  1.83985217
  13.73409868 12.18222655  2.10215343
  10.78482957  7.27259220  4.51750326
   9.36723932 11.97837019  8.44135442
   2.88963348 20.20909723  6.87836691
   1.47429889 24.50874241  3.89315528
   9.37016230  7.68049413  1.63236756
  21.63206344 24.31432280 10.23515511
  23.04178668 19.59876072  6.31197671
   2.89304855 24.10393659  6.77874477
  15.14901940 11.78147401  4.98510960
  13.74056306  7.06567134  1.06388033
  23.04873017 24.71489996  7.35093684
  15.15289890  7.89366557  5.08960335
  10.78110936 12.38648416  5.55636821
   1.47054256 19.39051418  2.85308289
  21.62857281 20.01316959  3.42593243
  23.16251190 23.09044463  4.55554608
  23.62294408 23.36423893  5.81838528
  23.16216017 21.22980253  9.10303434
  13.61901332 10.97069848  6.21828152
  13.16065740  8.41883085  2.59264552
   0.89658559 20.74411357  4.38385139
  13.15952108 11.24447908  7.48152770
  13.61988265  8.69680384  3.85505254
  11.35965553 11.03599128  4.02518707
   1.35777006 21.01915789  5.64621045
   0.89984299 23.57022813  9.27317210
  11.36255451  8.62504645  6.04791370
  23.62165321 20.95188850  7.84070306
   1.36046206 23.29467144  8.01061450
  10.90263787  8.90092828  7.31054387
  10.90026658 10.75976251  2.76248666
  20.90514500  1.08194162  1.98645311
  20.89693686 18.58979969  8.09241027
  15.87673332 13.61420609  7.23671178
  15.88600871  6.05785303  2.84445152
   3.61398456 18.37298851  4.63161333
   8.63706595 13.39962700  3.77871541
   3.61888113  1.28525114  5.44046098
   8.64172774  6.25831489  6.29688843
  20.40914704  0.26095946  4.08880739
  21.34897464  2.34631470  6.79916280
  21.33201506 17.33329618  3.28415953
  15.43204188 14.46580745  5.13826244
  15.45048393  5.21453820  4.94786590
   4.11626977 19.60890075  9.44356387
  16.37340866 12.38008642  2.42723649
  16.38581335  7.29303062  7.65544633
   8.14119221 12.57959135  5.88131910
   3.16914556 17.52284595  6.73062024
   3.17527296  2.13728152  3.34200361
   9.08101084  4.99722298  1.48602647
  20.39760520 19.41150548  5.99173760
   4.11293580  0.05241581  0.63184395
   8.14145837  7.08149819  4.19672637
   9.07713358 14.65965616  8.58895507
 


--------------------------------------------------------------------------------------------------------


 k-point  1 :   0.0000 0.0000 0.0000  plane waves:  138133
 k-point  2 :  -0.0000 0.0000 0.2500  plane waves:  138205
 k-point  3 :  -0.0000 0.0000 0.5000  plane waves:  138358

 maximum and minimum number of plane-waves per node :     34610    34462

 maximum number of plane-waves:    138358
 maximum index in each direction: 
   IXMAX=   48   IYMAX=   49   IZMAX=   13
   IXMIN=  -48   IYMIN=  -49   IZMIN=  -14


 real space projection operators:
  total allocation   :      11591.65 KBytes
  max/ min on nodes  :       2931.31       2863.82


 parallel 3D FFT for wavefunctions:
    minimum data exchange during FFTs selected (reduces bandwidth)
 parallel 3D FFT for charge:
    minimum data exchange during FFTs selected (reduces bandwidth)


 total amount of memory used by VASP MPI-rank0   114640. kBytes
=======================================================================

   base      :      30000. kBytes
   nonlr-proj:       5910. kBytes
   fftplans  :       9907. kBytes
   grid      :      27355. kBytes
   one-center:       1213. kBytes
   wavefun   :      40255. kBytes
 
     INWAV:  cpu time    0.0002: real time    0.0002
 Broyden mixing: mesh for mixing (old mesh)
   NGX = 97   NGY = 99   NGZ = 27
  (NGX  =300   NGY  =300   NGZ  = 84)
  gives a total of 259281 points

 initial charge density was supplied:
 charge density of overlapping atoms calculated
 number of electron     604.0000000 magnetization      -0.0000000
 keeping initial charge density in first step


--------------------------------------------------------------------------------------------------------


 Maximum index for non-local projection operator          615
 Maximum index for augmentation-charges          480 (set IRDMAX)


--------------------------------------------------------------------------------------------------------


 First call to EWALD:  gamma=   0.110
 Maximum number of real-space cells 2x 2x 6
 Maximum number of reciprocal cells 4x 4x 1

    FEWALD:  cpu time    0.0162: real time    0.0163


--------------------------------------- Iteration      1(   1)  ---------------------------------------


    POTLOK:  cpu time    0.4693: real time    0.5165
    SETDIJ:  cpu time    0.0802: real time    0.0811
     EDDAV:  cpu time   17.4412: real time   17.6143
       DOS:  cpu time    0.0088: real time    0.0091
    --------------------------------------------
      LOOP:  cpu time   17.9996: real time   18.2212

 eigenvalue-minimisations  :  4608
 total energy-change (2. order) : 0.5650024E+04  (-0.2650321E+05)
 number of electron     604.0000000 magnetization      -0.0000000
 augmentation part      604.0000000 magnetization      -0.0000000

 Free energy of the ion-electron system (eV)
  ---------------------------------------------------
  alpha Z        PSCENC =       407.87673836
  Ewald energy   TEWEN  =     42632.34078473
  -Hartree energ DENC   =    -66304.26065923
  -exchange      EXHF   =         0.00000000
  -V(xc)+E(xc)   XCENC  =      2114.70072556
  PAW double counting   =     22087.95224925   -22402.63741193
  entropy T*S    EENTRO =        -0.04922466
  eigenvalues    EBANDS =     -1577.70971046
  atomic energy  EATOM  =     28691.81066055
  Solvation  Ediel_sol  =         0.00000000
  ---------------------------------------------------
  free energy    TOTEN  =      5650.02415217 eV

  energy without entropy =     5650.07337683  energy(sigma->0) =     5650.04876450


--------------------------------------------------------------------------------------------------------




--------------------------------------- Iteration      1(   2)  ---------------------------------------


     EDDAV:  cpu time   23.9751: real time   24.0094
       DOS:  cpu time    0.0023: real time    0.0023
    --------------------------------------------
      LOOP:  cpu time   23.9774: real time   24.0116

 eigenvalue-minimisations  :  6720
 total energy-change (2. order) :-0.5869979E+04  (-0.5641581E+04)
 number of electron     604.0000000 magnetization      -0.0000000
 augmentation part      604.0000000 magnetization      -0.0000000

 Free energy of the ion-electron system (eV)
  ---------------------------------------------------
  alpha Z        PSCENC =       407.87673836
  Ewald energy   TEWEN  =     42632.34078473
  -Hartree energ DENC   =    -66304.26065923
  -exchange      EXHF   =         0.00000000
  -V(xc)+E(xc)   XCENC  =      2114.70072556
  PAW double counting   =     22087.95224925   -22402.63741193
  entropy T*S    EENTRO =        -0.00000000
  eigenvalues    EBANDS =     -7447.73772573
  atomic energy  EATOM  =     28691.81066055
  Solvation  Ediel_sol  =         0.00000000
  ---------------------------------------------------
  free energy    TOTEN  =      -219.95463844 eV

  energy without entropy =     -219.95463844  energy(sigma->0) =     -219.95463844


--------------------------------------------------------------------------------------------------------




--------------------------------------- Iteration      1(   3)  ---------------------------------------


     EDDAV:  cpu time   19.8879: real time   19.9107
       DOS:  cpu time    0.0033: real time    0.0033
    --------------------------------------------
      LOOP:  cpu time   19.8913: real time   19.9140

 eigenvalue-minimisations  :  5408
 total energy-change (2. order) :-0.1037573E+04  (-0.1030375E+04)
 number of electron     604.0000000 magnetization      -0.0000000
 augmentation part      604.0000000 magnetization      -0.0000000

 Free energy of the ion-electron system (eV)
  ---------------------------------------------------
  alpha Z        PSCENC =       407.87673836
  Ewald energy   TEWEN  =     42632.34078473
  -Hartree energ DENC   =    -66304.26065923
  -exchange      EXHF   =         0.00000000
  -V(xc)+E(xc)   XCENC  =      2114.70072556
  PAW double counting   =     22087.95224925   -22402.63741193
  entropy T*S    EENTRO =        -0.07134831
  eigenvalues    EBANDS =     -8485.23941286
  atomic energy  EATOM  =     28691.81066055
  Solvation  Ediel_sol  =         0.00000000
  ---------------------------------------------------
  free energy    TOTEN  =     -1257.52767389 eV

  energy without entropy =    -1257.45632557  energy(sigma->0) =    -1257.49199973


--------------------------------------------------------------------------------------------------------




--------------------------------------- Iteration      1(   4)  ---------------------------------------


     EDDAV:  cpu time   21.5657: real time   21.5900
       DOS:  cpu time    0.0036: real time    0.0036
    --------------------------------------------
      LOOP:  cpu time   21.5693: real time   21.5936

 eigenvalue-minimisations  :  6176
 total energy-change (2. order) :-0.3871884E+02  (-0.3841393E+02)
 number of electron     604.0000000 magnetization      -0.0000000
 augmentation part      604.0000000 magnetization      -0.0000000

 Free energy of the ion-electron system (eV)
  ---------------------------------------------------
  alpha Z        PSCENC =       407.87673836
  Ewald energy   TEWEN  =     42632.34078473
  -Hartree energ DENC   =    -66304.26065923
  -exchange      EXHF   =         0.00000000
  -V(xc)+E(xc)   XCENC  =      2114.70072556
  PAW double counting   =     22087.95224925   -22402.63741193
  entropy T*S    EENTRO =        -0.06296418
  eigenvalues    EBANDS =     -8523.96663944
  atomic energy  EATOM  =     28691.81066055
  Solvation  Ediel_sol  =         0.00000000
  ---------------------------------------------------
  free energy    TOTEN  =     -1296.24651633 eV

  energy without entropy =    -1296.18355215  energy(sigma->0) =    -1296.21503424


--------------------------------------------------------------------------------------------------------




--------------------------------------- Iteration      1(   5)  ---------------------------------------


     EDDAV:  cpu time   24.1182: real time   24.1447
       DOS:  cpu time    0.0029: real time    0.0029
    CHARGE:  cpu time    0.9209: real time    0.9297
    MIXING:  cpu time    0.0206: real time    0.0237
    --------------------------------------------
      LOOP:  cpu time   25.0625: real time   25.1010

 eigenvalue-minimisations  :  6720
 total energy-change (2. order) :-0.1086903E+01  (-0.1083756E+01)
 number of electron     604.0000008 magnetization       0.0004153
 augmentation part       36.5669694 magnetization      -0.0042865

 Broyden mixing:
  rms(total) = 0.87985E+01    rms(broyden)= 0.87979E+01
  rms(prec ) = 0.96914E+01
  weight for this iteration     100.00

 Free energy of the ion-electron system (eV)
  ---------------------------------------------------
  alpha Z        PSCENC =       407.87673836
  Ewald energy   TEWEN  =     42632.34078473
  -Hartree energ DENC   =    -66304.26065923
  -exchange      EXHF   =         0.00000000
  -V(xc)+E(xc)   XCENC  =      2114.70072556
  PAW double counting   =     22087.95224925   -22402.63741193
  entropy T*S    EENTRO =        -0.06151156
  eigenvalues    EBANDS =     -8525.05499483
  atomic energy  EATOM  =     28691.81066055
  Solvation  Ediel_sol  =         0.00000000
  ---------------------------------------------------
  free energy    TOTEN  =     -1297.33341910 eV

  energy without entropy =    -1297.27190754  energy(sigma->0) =    -1297.30266332


--------------------------------------------------------------------------------------------------------




--------------------------------------- Iteration      1(   6)  ---------------------------------------


    POTLOK:  cpu time    0.3863: real time    0.3905
    SETDIJ:  cpu time    0.0617: real time    0.0617
     EDDAV:  cpu time   23.5270: real time   23.5639
       DOS:  cpu time    0.0030: real time    0.0030
    CHARGE:  cpu time    0.8907: real time    0.8922
    MIXING:  cpu time    0.0167: real time    0.0286
    --------------------------------------------
      LOOP:  cpu time   24.8854: real time   24.9399

 eigenvalue-minimisations  :  6656
 total energy-change (2. order) :-0.2243888E+03  (-0.2812152E+03)
 number of electron     603.9999992 magnetization       0.0000111
 augmentation part       56.7846018 magnetization       0.0171549

 Broyden mixing:
  rms(total) = 0.22529E+02    rms(broyden)= 0.22529E+02
  rms(prec ) = 0.22898E+02
  weight for this iteration     100.00

 eigenvalues of (default mixing * dielectric matrix)
  average eigenvalue GAMMA=   0.1055
  0.1055

 Free energy of the ion-electron system (eV)
  ---------------------------------------------------
  alpha Z        PSCENC =       407.87673836
  Ewald energy   TEWEN  =     42632.34078473
  -Hartree energ DENC   =    -66598.25147644
  -exchange      EXHF   =         0.00000000
  -V(xc)+E(xc)   XCENC  =      2150.40156037
  PAW double counting   =     32777.61321152   -32999.57919297
  entropy T*S    EENTRO =        -0.12582892
  eigenvalues    EBANDS =     -8583.80865096
  atomic energy  EATOM  =     28691.81066055
  Solvation  Ediel_sol  =         0.00000000
  ---------------------------------------------------
  free energy    TOTEN  =     -1521.72219377 eV

  energy without entropy =    -1521.59636485  energy(sigma->0) =    -1521.65927931


--------------------------------------------------------------------------------------------------------




--------------------------------------- Iteration      1(   7)  ---------------------------------------


    POTLOK:  cpu time    0.3532: real time    0.3532
    SETDIJ:  cpu time    0.0610: real time    0.0610
     EDDAV:  cpu time   20.1483: real time   20.1709
       DOS:  cpu time    0.0031: real time    0.0031
    CHARGE:  cpu time    0.8893: real time    0.8917
    MIXING:  cpu time    0.0083: real time    0.0131
    --------------------------------------------
      LOOP:  cpu time   21.4633: real time   21.4930

 eigenvalue-minimisations  :  5472
 total energy-change (2. order) : 0.9983447E+02  (-0.2296359E+02)
 number of electron     603.9999991 magnetization      -0.0002093
 augmentation part       55.1059922 magnetization       0.0081873

 Broyden mixing:
  rms(total) = 0.14358E+02    rms(broyden)= 0.14358E+02
  rms(prec ) = 0.14863E+02
  weight for this iteration     100.00

 eigenvalues of (default mixing * dielectric matrix)
  average eigenvalue GAMMA=   0.4998
  0.4998  0.4998

 Free energy of the ion-electron system (eV)
  ---------------------------------------------------
  alpha Z        PSCENC =       407.87673836
  Ewald energy   TEWEN  =     42632.34078473
  -Hartree energ DENC   =    -66760.34327740
  -exchange      EXHF   =         0.00000000
  -V(xc)+E(xc)   XCENC  =      2153.18454181
  PAW double counting   =     34353.88809556   -34606.84831341
  entropy T*S    EENTRO =        -0.13138868
  eigenvalues    EBANDS =     -8293.66556643
  atomic energy  EATOM  =     28691.81066055
  Solvation  Ediel_sol  =         0.00000000
  ---------------------------------------------------
  free energy    TOTEN  =     -1421.88772491 eV

  energy without entropy =    -1421.75633623  energy(sigma->0) =    -1421.82203057


--------------------------------------------------------------------------------------------------------




--------------------------------------- Iteration      1(   8)  ---------------------------------------


    POTLOK:  cpu time    0.3308: real time    0.3317
    SETDIJ:  cpu time    0.0608: real time    0.0608
     EDDAV:  cpu time   22.3599: real time   22.3859
       DOS:  cpu time    0.0033: real time    0.0033
    CHARGE:  cpu time    0.8899: real time    0.8926
    MIXING:  cpu time    0.0084: real time    0.0108
    --------------------------------------------
      LOOP:  cpu time   23.6533: real time   23.6853

 eigenvalue-minimisations  :  6400
 total energy-change (2. order) : 0.2646035E+03  (-0.2712066E+02)
 number of electron     604.0000008 magnetization      -0.0001939
 augmentation part       45.6912353 magnetization      -0.0019074

 Broyden mixing:
  rms(total) = 0.31988E+01    rms(broyden)= 0.31985E+01
  rms(prec ) = 0.32638E+01
  weight for this iteration     100.00

 eigenvalues of (default mixing * dielectric matrix)
  average eigenvalue GAMMA=   0.4846
  0.4700  0.4919  0.4919

 Free energy of the ion-electron system (eV)
  ---------------------------------------------------
  alpha Z        PSCENC =       407.87673836
  Ewald energy   TEWEN  =     42632.34078473
  -Hartree energ DENC   =    -67239.71929318
  -exchange      EXHF   =         0.00000000
  -V(xc)+E(xc)   XCENC  =      2164.45839954
  PAW double counting   =     39812.50179530   -40150.84153678
  entropy T*S    EENTRO =        -0.00016513
  eigenvalues    EBANDS =     -7475.71164254
  atomic energy  EATOM  =     28691.81066055
  Solvation  Ediel_sol  =         0.00000000
  ---------------------------------------------------
[...]
     15.14902     11.78147      4.98511         0.004198      0.002680     -0.001035
     13.74056      7.06567      1.06388         0.000675      0.002479      0.000427
     23.04873     24.71490      7.35094        -0.002691     -0.000506      0.000480
     15.15290      7.89367      5.08960         0.003943     -0.001451      0.002679
     10.78111     12.38648      5.55637        -0.001376     -0.000846      0.000805
      1.47054     19.39051      2.85308        -0.000714      0.003070      0.001680
     21.62857     20.01317      3.42593        -0.002897     -0.000408      0.002822
     23.16251     23.09044      4.55555        -0.004850      0.005069      0.002700
     23.62294     23.36424      5.81839         0.002642      0.001548      0.002438
     23.16216     21.22980      9.10303        -0.003553     -0.000677      0.002511
     13.61901     10.97070      6.21828         0.000299      0.004068      0.001656
     13.16066      8.41883      2.59265         0.004260     -0.004707     -0.001069
      0.89659     20.74411      4.38385         0.002601     -0.004056     -0.000703
     13.15952     11.24448      7.48153        -0.003487     -0.000074      0.001554
     13.61988      8.69680      3.85505         0.003453     -0.000547      0.000966
     11.35966     11.03599      4.02519        -0.001455      0.004346      0.000266
      1.35777     21.01916      5.64621         0.002775     -0.001552      0.000592
      0.89984     23.57023      9.27317        -0.002435      0.000317      0.000659
     11.36255      8.62505      6.04791        -0.003661     -0.003657     -0.000565
     23.62165     20.95189      7.84070        -0.005903     -0.002629     -0.000147
      1.36046     23.29467      8.01061         0.004758      0.007583      0.003142
     10.90264      8.90093      7.31054        -0.003023     -0.003774      0.000507
     10.90027     10.75976      2.76249        -0.005628      0.004717      0.000048
     20.90515      1.08194      1.98645        -0.002558      0.003283     -0.002239
     20.89694     18.58980      8.09241        -0.005026     -0.000535      0.001187
     15.87673     13.61421      7.23671         0.001947      0.001568      0.000122
     15.88601      6.05785      2.84445         0.006282     -0.002795     -0.001856
      3.61398     18.37299      4.63161         0.002664     -0.000174      0.000104
      8.63707     13.39963      3.77872        -0.003562      0.001209     -0.000230
      3.61888      1.28525      5.44046         0.001729      0.002317     -0.003682
      8.64173      6.25831      6.29689        -0.006171     -0.000236     -0.000982
     20.40915      0.26096      4.08881        -0.000063      0.001932     -0.003391
     21.34897      2.34631      6.79916         0.000481     -0.000074      0.003009
     21.33202     17.33330      3.28416         0.001889      0.002691      0.000123
     15.43204     14.46581      5.13826         0.000526      0.000639      0.004116
     15.45048      5.21454      4.94787         0.001332     -0.000161     -0.003340
      4.11627     19.60890      9.44356        -0.000958      0.004193     -0.003254
     16.37341     12.38009      2.42724        -0.000593      0.003405     -0.007394
     16.38581      7.29303      7.65545        -0.000057      0.000731     -0.002043
      8.14119     12.57959      5.88132         0.000856      0.003031     -0.002332
      3.16915     17.52285      6.73062         0.004062     -0.000080     -0.003548
      3.17527      2.13728      3.34200        -0.000159     -0.001250      0.004778
      9.08101      4.99722      1.48603         0.001330      0.002190      0.000438
     20.39761     19.41151      5.99174        -0.000444     -0.001186     -0.001091
      4.11294      0.05242      0.63184         0.000115      0.001334     -0.003375
      8.14146      7.08150      4.19673         0.001248      0.000151      0.000054
      9.07713     14.65966      8.58896         0.000837     -0.001389      0.002080
 -----------------------------------------------------------------------------------
    total drift:                                0.014187      0.042853     -0.013826


--------------------------------------------------------------------------------------------------------



  FREE ENERGIE OF THE ION-ELECTRON SYSTEM (eV)
  ---------------------------------------------------
  free  energy   TOTEN  =     -1178.90331575 eV

  energy  without entropy=    -1178.89613066  energy(sigma->0) =    -1178.89972321
 


--------------------------------------------------------------------------------------------------------


    POTLOK:  cpu time    0.5348: real time    0.5348


--------------------------------------------------------------------------------------------------------




--------------------------------------------------------------------------------------------------------


  
 reached required accuracy - stopping structural energy minimisation
 writing wavefunctions
     LOOP+:  cpu time 1083.0473: real time 1098.3330
    4ORBIT:  cpu time    0.0000: real time    0.0000
 


 total charge     
 
# of ion       s       p       d       tot
------------------------------------------
    1        0.866   1.767   0.000   2.634
    2        0.867   1.772   0.000   2.639
    3        0.866   1.768   0.000   2.634
    4        0.866   1.767   0.000   2.634
    5        0.867   1.772   0.000   2.639
    6        0.867   1.772   0.000   2.639
    7        0.867   1.772   0.000   2.639
    8        0.866   1.768   0.000   2.634
    9        0.867   1.772   0.000   2.640
   10        0.866   1.768   0.000   2.634
   11        0.867   1.772   0.000   2.640
   12        0.867   1.772   0.000   2.639
   13        0.867   1.772   0.000   2.639
   14        0.866   1.767   0.000   2.633
   15        0.866   1.768   0.000   2.634
   16        0.866   1.767   0.000   2.633
   17        0.862   1.715   0.000   2.577
   18        0.863   1.717   0.000   2.580
   19        0.863   1.717   0.000   2.579
   20        0.863   1.717   0.000   2.580
   21        0.863   1.717   0.000   2.579
   22        0.862   1.715   0.000   2.578
   23        0.862   1.715   0.000   2.577
   24        0.862   1.715   0.000   2.578
   25        0.862   1.715   0.000   2.577
   26        0.863   1.717   0.000   2.579
   27        0.863   1.717   0.000   2.580
   28        0.863   1.717   0.000   2.579
   29        0.862   1.715   0.000   2.577
   30        0.862   1.715   0.000   2.577
   31        0.862   1.715   0.000   2.577
   32        0.863   1.717   0.000   2.580
   33        0.866   1.783   0.000   2.649
   34        0.866   1.783   0.000   2.649
   35        0.866   1.783   0.000   2.649
   36        0.866   1.783   0.000   2.649
   37        0.866   1.783   0.000   2.649
   38        0.866   1.783   0.000   2.649
   39        0.866   1.783   0.000   2.649
   40        0.866   1.782   0.000   2.648
   41        0.866   1.782   0.000   2.648
   42        0.866   1.783   0.000   2.649
   43        0.866   1.783   0.000   2.649
   44        0.866   1.783   0.000   2.649
   45        0.866   1.782   0.000   2.648
   46        0.866   1.782   0.000   2.649
   47        0.866   1.782   0.000   2.648
   48        0.866   1.783   0.000   2.649
   49        0.870   1.765   0.000   2.636
   50        0.870   1.765   0.000   2.636
   51        0.870   1.765   0.000   2.635
   52        0.870   1.765   0.000   2.636
   53        0.870   1.765   0.000   2.635
   54        0.870   1.765   0.000   2.635
   55        0.870   1.765   0.000   2.635
   56        0.870   1.765   0.000   2.635
   57        0.870   1.765   0.000   2.636
   58        0.870   1.765   0.000   2.635
   59        0.870   1.765   0.000   2.636
   60        0.870   1.765   0.000   2.635
   61        0.870   1.765   0.000   2.635
   62        0.870   1.765   0.000   2.635
   63        0.870   1.765   0.000   2.635
   64        0.870   1.765   0.000   2.636
   65        0.845   1.789   0.000   2.634
   66        0.845   1.789   0.000   2.634
   67        0.845   1.789   0.000   2.634
   68        0.845   1.789   0.000   2.634
   69        0.845   1.789   0.000   2.633
   70        0.845   1.789   0.000   2.634
   71        0.845   1.789   0.000   2.634
   72        0.845   1.789   0.000   2.634
   73        0.866   1.794   0.000   2.660
   74        0.866   1.794   0.000   2.660
   75        0.866   1.794   0.000   2.660
   76        0.866   1.794   0.000   2.660
   77        0.866   1.794   0.000   2.660
   78        0.866   1.794   0.000   2.660
   79        0.866   1.794   0.000   2.660
   80        0.866   1.794   0.000   2.660
   81        0.404   0.516   7.151   8.070
   82        0.403   0.515   7.150   8.069
   83        0.404   0.516   7.151   8.070
   84        0.404   0.516   7.151   8.070
   85        0.638   0.048   0.000   0.686
   86        0.638   0.048   0.000   0.686
   87        0.638   0.048   0.000   0.686
   88        0.638   0.048   0.000   0.686
   89        0.638   0.048   0.000   0.686
   90        0.638   0.048   0.000   0.686
   91        0.638   0.048   0.000   0.686
   92        0.638   0.048   0.000   0.686
   93        0.638   0.048   0.000   0.686
   94        0.638   0.048   0.000   0.686
   95        0.638   0.048   0.000   0.686
   96        0.638   0.048   0.000   0.686
   97        0.638   0.048   0.000   0.686
   98        0.638   0.048   0.000   0.686
   99        0.638   0.048   0.000   0.686
  100        0.638   0.048   0.000   0.686
  101        0.637   0.049   0.000   0.686
  102        0.637   0.049   0.000   0.686
  103        0.634   0.049   0.000   0.683
  104        0.634   0.049   0.000   0.683
  105        0.637   0.049   0.000   0.686
  106        0.634   0.049   0.000   0.683
  107        0.634   0.049   0.000   0.683
  108        0.638   0.049   0.000   0.687
  109        0.634   0.049   0.000   0.683
  110        0.634   0.049   0.000   0.683
  111        0.637   0.049   0.000   0.686
  112        0.637   0.049   0.000   0.687
  113        0.634   0.049   0.000   0.683
  114        0.637   0.049   0.000   0.687
  115        0.637   0.049   0.000   0.686
  116        0.634   0.049   0.000   0.683
  117        1.235   2.606   0.000   3.841
  118        1.236   2.609   0.000   3.845
  119        1.235   2.606   0.000   3.841
  120        1.235   2.606   0.000   3.841
  121        1.236   2.609   0.000   3.845
  122        1.236   2.609   0.000   3.845
  123        1.236   2.609   0.000   3.845
  124        1.235   2.606   0.000   3.841
  125        1.236   2.609   0.000   3.845
  126        1.235   2.606   0.000   3.841
  127        1.236   2.609   0.000   3.845
  128        1.236   2.609   0.000   3.845
  129        1.236   2.609   0.000   3.844
  130        1.235   2.606   0.000   3.841
  131        1.235   2.606   0.000   3.841
  132        1.235   2.606   0.000   3.841
  133        1.210   2.718   0.000   3.928
  134        1.210   2.718   0.000   3.928
  135        1.210   2.718   0.000   3.928
  136        1.210   2.718   0.000   3.928
  137        1.210   2.718   0.000   3.928
  138        1.210   2.718   0.000   3.928
  139        1.210   2.718   0.000   3.928
  140        1.210   2.718   0.000   3.928
  141        1.586   3.537   0.000   5.123
  142        1.586   3.535   0.000   5.121
  143        1.586   3.535   0.000   5.121
  144        1.586   3.535   0.000   5.121
  145        1.586   3.535   0.000   5.121
  146        1.586   3.538   0.000   5.123
  147        1.586   3.537   0.000   5.123
  148        1.586   3.538   0.000   5.123
  149        1.586   3.537   0.000   5.123
  150        1.586   3.535   0.000   5.121
  151        1.586   3.535   0.000   5.121
  152        1.586   3.535   0.000   5.121
  153        1.586   3.537   0.000   5.123
  154        1.586   3.537   0.000   5.123
  155        1.586   3.538   0.000   5.123
  156        1.586   3.535   0.000   5.121
--------------------------------------------------
tot        145.944 264.867  28.602 439.414
 


 magnetization (x)
 
# of ion       s       p       d       tot
------------------------------------------
    1        0.003   0.012   0.000   0.015
    2        0.003   0.013   0.000   0.015
    3        0.003   0.012   0.000   0.015
    4       -0.003  -0.012   0.000  -0.015
    5       -0.003  -0.013   0.000  -0.015
    6        0.003   0.013   0.000   0.015
    7       -0.003  -0.013   0.000  -0.015
    8       -0.003  -0.012   0.000  -0.015
    9       -0.003  -0.013   0.000  -0.015
   10        0.003   0.012   0.000   0.015
   11        0.003   0.013   0.000   0.015
   12       -0.003  -0.013   0.000  -0.015
   13        0.003   0.013   0.000   0.015
   14        0.003   0.012   0.000   0.015
   15       -0.003  -0.012   0.000  -0.015
   16       -0.003  -0.012   0.000  -0.015
   17        0.000   0.001   0.000   0.001
   18        0.000   0.001   0.000   0.001
   19        0.000   0.001   0.000   0.001
   20       -0.000  -0.001   0.000  -0.001
   21       -0.000  -0.001   0.000  -0.001
   22        0.000   0.001   0.000   0.001
   23       -0.000  -0.001   0.000  -0.001
   24       -0.000  -0.001   0.000  -0.001
   25       -0.000  -0.001   0.000  -0.001
   26        0.000   0.001   0.000   0.001
   27        0.000   0.001   0.000   0.001
   28       -0.000  -0.001   0.000  -0.001
   29        0.000   0.001   0.000   0.001
   30        0.000   0.001   0.000   0.001
   31       -0.000  -0.001   0.000  -0.001
   32       -0.000  -0.001   0.000  -0.001
   33       -0.000  -0.000   0.000  -0.000
   34       -0.000  -0.000   0.000  -0.000
   35       -0.000  -0.000   0.000  -0.000
   36        0.000   0.000   0.000   0.000
   37        0.000   0.000   0.000   0.000
   38       -0.000  -0.000   0.000  -0.000
   39        0.000   0.000   0.000   0.000
   40        0.000   0.000   0.000   0.000
   41        0.000   0.000   0.000   0.000
   42       -0.000  -0.000   0.000  -0.000
   43       -0.000  -0.000   0.000  -0.000
   44        0.000   0.000   0.000   0.000
   45       -0.000  -0.000   0.000  -0.000
   46       -0.000  -0.000   0.000  -0.000
   47        0.000   0.000   0.000   0.000
   48        0.000   0.000   0.000   0.000
   49        0.000   0.000   0.000   0.000
   50        0.000   0.000   0.000   0.000
   51        0.000   0.000   0.000   0.000
   52       -0.000  -0.000   0.000  -0.000
   53       -0.000  -0.000   0.000  -0.000
   54        0.000   0.000   0.000   0.000
   55       -0.000  -0.000   0.000  -0.000
   56       -0.000  -0.000   0.000  -0.000
   57       -0.000  -0.000   0.000  -0.000
   58        0.000   0.000   0.000   0.000
   59        0.000   0.000   0.000   0.000
   60       -0.000  -0.000   0.000  -0.000
   61        0.000   0.000   0.000   0.000
   62        0.000   0.000   0.000   0.000
   63       -0.000  -0.000   0.000  -0.000
   64       -0.000  -0.000   0.000  -0.000
   65        0.002   0.009   0.000   0.011
   66        0.002   0.009   0.000   0.011
   67       -0.002  -0.009   0.000  -0.011
   68       -0.002  -0.009   0.000  -0.011
   69        0.002   0.009   0.000   0.011
   70       -0.002  -0.009   0.000  -0.011
   71        0.002   0.009   0.000   0.011
   72       -0.002  -0.009   0.000  -0.011
   73        0.000   0.000   0.000   0.000
   74        0.000   0.000   0.000   0.000
   75       -0.000  -0.000   0.000  -0.000
   76       -0.000  -0.000   0.000  -0.000
   77        0.000   0.000   0.000   0.000
   78       -0.000  -0.000   0.000  -0.000
   79        0.000   0.000   0.000   0.000
   80       -0.000  -0.000   0.000  -0.000
   81        0.011   0.087   2.347   2.444
   82        0.011   0.086   2.347   2.445
   83       -0.011  -0.087  -2.347  -2.444
   84       -0.011  -0.087  -2.347  -2.444
   85        0.000  -0.000   0.000   0.000
   86        0.000  -0.000   0.000   0.000
   87        0.000  -0.000   0.000   0.000
   88       -0.000   0.000   0.000  -0.000
   89       -0.000   0.000   0.000  -0.000
   90        0.000  -0.000   0.000   0.000
   91       -0.000   0.000   0.000  -0.000
   92       -0.000   0.000   0.000  -0.000
   93       -0.000   0.000   0.000  -0.000
   94        0.000  -0.000   0.000   0.000
   95        0.000  -0.000   0.000   0.000
   96       -0.000   0.000   0.000  -0.000
   97        0.000  -0.000   0.000   0.000
   98        0.000  -0.000   0.000   0.000
   99       -0.000   0.000   0.000  -0.000
  100       -0.000   0.000   0.000  -0.000
  101       -0.001  -0.000   0.000  -0.001
  102       -0.001  -0.000   0.000  -0.001
  103       -0.001  -0.000   0.000  -0.001
  104        0.001   0.000   0.000   0.001
  105        0.001   0.000   0.000   0.001
  106       -0.001  -0.000   0.000  -0.001
  107        0.001   0.000   0.000   0.001
  108        0.001   0.000   0.000   0.001
  109        0.001   0.000   0.000   0.001
  110       -0.001  -0.000   0.000  -0.001
  111       -0.001  -0.000   0.000  -0.001
  112        0.001   0.000   0.000   0.001
  113       -0.001  -0.000   0.000  -0.001
  114       -0.001  -0.000   0.000  -0.001
  115        0.001   0.000   0.000   0.001
  116        0.001   0.000   0.000   0.001
  117        0.013   0.045   0.000   0.058
  118        0.014   0.046   0.000   0.060
  119        0.013   0.045   0.000   0.058
  120       -0.013  -0.045   0.000  -0.058
  121       -0.014  -0.046   0.000  -0.060
  122        0.014   0.046   0.000   0.060
  123       -0.014  -0.046   0.000  -0.060
  124       -0.013  -0.045   0.000  -0.058
  125       -0.014  -0.046   0.000  -0.060
  126        0.013   0.045   0.000   0.058
  127        0.014   0.046   0.000   0.060
  128       -0.014  -0.046   0.000  -0.060
  129        0.014   0.046   0.000   0.060
  130        0.013   0.045   0.000   0.058
  131       -0.013  -0.045   0.000  -0.058
  132       -0.013  -0.045   0.000  -0.058
  133        0.000   0.001   0.000   0.001
  134        0.000   0.001   0.000   0.001
  135       -0.000  -0.001   0.000  -0.001
  136       -0.000  -0.001   0.000  -0.001
  137        0.000   0.001   0.000   0.001
  138       -0.000  -0.001   0.000  -0.001
  139        0.000   0.001   0.000   0.001
  140       -0.000  -0.001   0.000  -0.001
  141        0.000   0.001   0.000   0.001
  142        0.000   0.001   0.000   0.001
  143        0.000   0.001   0.000   0.001
  144       -0.000  -0.001   0.000  -0.001
  145       -0.000  -0.001   0.000  -0.001
  146        0.000   0.001   0.000   0.001
  147       -0.000  -0.001   0.000  -0.001
  148       -0.000  -0.001   0.000  -0.001
  149       -0.000  -0.001   0.000  -0.001
  150        0.000   0.001   0.000   0.001
  151        0.000   0.001   0.000   0.001
  152       -0.000  -0.001   0.000  -0.001
  153        0.000   0.001   0.000   0.001
  154        0.000   0.001   0.000   0.001
  155       -0.000  -0.001   0.000  -0.001
  156       -0.000  -0.001   0.000  -0.001
--------------------------------------------------
tot         -0.000  -0.000   0.000  -0.000
 

 total amount of memory used by VASP MPI-rank0   114640. kBytes
=======================================================================

   base      :      30000. kBytes
   nonlr-proj:       5910. kBytes
   fftplans  :       9907. kBytes
   grid      :      27355. kBytes
   one-center:       1213. kBytes
   wavefun   :      40255. kBytes
 
  
  
 General timing and accounting informations for this job:
 ========================================================
  
                  Total CPU time used (sec):     1302.070
                            User time (sec):     1188.546
                          System time (sec):      113.524
                         Elapsed time (sec):     1327.125
  
                   Maximum memory used (kb):      980120.
                   Average memory used (kb):           0.
  
                          Minor page faults:       142656
                          Major page faults:            9
                 Voluntary context switches:        41547
