       N       E                     dE             d eps       ncg     rms          rms(c)
RMM:   1     0.568823108668E+04    0.56882E+04   -0.27972E+05  2800   0.143E+03
RMM:   2     0.189676582166E+04   -0.37915E+04   -0.66848E+04  2800   0.330E+02
RMM:   3    -0.883999749559E+02   -0.19852E+04   -0.22585E+04  2800   0.175E+02
RMM:   4    -0.842839196352E+03   -0.75444E+03   -0.71187E+03  2800   0.126E+02
RMM:   5    -0.109710839970E+04   -0.25427E+03   -0.22289E+03  2800   0.702E+01
RMM:   6    -0.117999578145E+04   -0.82887E+02   -0.73282E+02  2800   0.452E+01
RMM:   7    -0.121026823372E+04   -0.30272E+02   -0.26842E+02  2800   0.266E+01
RMM:   8    -0.122160077962E+04   -0.11333E+02   -0.10013E+02  2800   0.190E+01
RMM:   9    -0.122998220852E+04   -0.83814E+01   -0.78667E+01  7441   0.110E+01
RMM:  10    -0.123010237483E+04   -0.12017E+00   -0.22290E+00  6889   0.179E+00
RMM:  11    -0.123011804485E+04   -0.15670E-01   -0.16003E-01  7155   0.511E-01
RMM:  12    -0.123011887686E+04   -0.83201E-03   -0.11507E-02  6898   0.101E-01    0.578E+01
RMM:  13    -0.116098857349E+04    0.69130E+02   -0.14861E+02  5600   0.161E+01    0.322E+01
RMM:  14    -0.114761055255E+04    0.13378E+02   -0.41153E+01  5600   0.847E+00    0.148E+01
RMM:  15    -0.114670546807E+04    0.90508E+00   -0.89894E+00  5600   0.433E+00    0.491E+00
RMM:  16    -0.114658799075E+04    0.11748E+00   -0.66995E-01  5701   0.140E+00    0.130E+00
RMM:  17    -0.114659758687E+04   -0.95961E-02   -0.14432E-01  5657   0.646E-01    0.410E-01
RMM:  18    -0.114659777481E+04   -0.18794E-03   -0.13474E-02  5660   0.209E-01    0.201E-01
RMM:  19    -0.114659921036E+04   -0.14356E-02   -0.53450E-03  5674   0.104E-01    0.902E-02
RMM:  20    -0.114659898648E+04    0.22388E-03   -0.14666E-03  5606   0.567E-02    0.545E-02
RMM:  21    -0.114659877117E+04    0.21531E-03   -0.35653E-04  5600   0.305E-02    0.142E-02
RMM:  22    -0.114659873636E+04    0.34804E-04   -0.78903E-05  5672   0.112E-02    0.114E-02
RMM:  23    -0.114659871084E+04    0.25519E-04   -0.28127E-05  5469   0.737E-03    0.289E-03
RMM:  24    -0.114659871024E+04    0.60321E-06   -0.32654E-06  3906   0.251E-03
   1 F= -.11623835E+04 E0= -.11623835E+04  d E =-.116238E+04
