 vasp.6.0.8 29Jun18 (build Mar 14 2019 11:44:20) complex                        
  
 executed on             LinuxIFC date 2021.01.08  13:28:59
 running   64 mpi-ranks, with    1 threads/rank
 distrk:  each k-point on   64 cores,    1 groups
 distr:  one band on NCORES_PER_BAND=   4 cores,   16 groups


--------------------------------------------------------------------------------------------------------


 INCAR:
 POTCAR:    PAW_PBE C 08Apr2002                   
 POTCAR:    PAW_PBE Zn 06Sep2000                  
 POTCAR:    PAW_PBE H 15Jun2001                   
 POTCAR:    PAW_PBE N 08Apr2002                   
 POTCAR:    PAW_PBE O 08Apr2002                   
 POTCAR:    PAW_PBE C 08Apr2002                   
   VRHFIN =C: s2p2                                                              
   LEXCH  = PE                                                                  
   EATOM  =   147.1560 eV,   10.8157 Ry                                         
                                                                                
   TITEL  = PAW_PBE C 08Apr2002                                                 
   LULTRA =        F    use ultrasoft PP ?                                      
   IUNSCR =        1    unscreen: 0-lin 1-nonlin 2-no                           
   RPACOR =    1.200    partial core radius                                     
   POMASS =   12.011; ZVAL   =    4.000    mass and valenz                      
   RCORE  =    1.500    outmost cutoff radius                                   
   RWIGS  =    1.630; RWIGS  =    0.863    wigner-seitz radius (au A)           
   ENMAX  =  400.000; ENMIN  =  300.000 eV                                      
   ICORE  =        2    local potential                                         
   LCOR   =        T    correct aug charges                                     
   LPAW   =        T    paw PP                                                  
   EAUG   =  644.873                                                            
   DEXC   =    0.000                                                            
   RMAX   =    1.529    core radius for proj-oper                               
   RAUG   =    1.300    factor for augmentation sphere                          
   RDEP   =    1.501    radius for radial grids                                 
   RDEPT  =    1.300    core radius for aug-charge                              
                                                                                
   Atomic configuration                                                         
    4 entries                                                                   
     n  l   j            E        occ.                                          
     1  0  0.50      -273.3789   2.0000                                         
     2  0  0.50       -13.7508   2.0000                                         
     2  1  0.50        -5.2854   2.0000                                         
     3  2  1.50        -5.4423   0.0000                                         
   Description                                                                  
     l       E           TYP  RCUT    TYP  RCUT                                 
     0    -13.7508458     23  1.200                                             
     0     -8.2022199     23  1.200                                             
     1     -5.2854383     23  1.500                                             
     1     34.0145650     23  1.500                                             
     2     -5.4423304      7  1.500                                             
  local pseudopotential read in
  partial core-charges read in
  partial kinetic energy density read in
  atomic valenz-charges read in
  non local Contribution for L=           0  read in
    real space projection operators read in
  non local Contribution for L=           0  read in
    real space projection operators read in
  non local Contribution for L=           1  read in
    real space projection operators read in
  non local Contribution for L=           1  read in
    real space projection operators read in
    PAW grid and wavefunctions read in
 
   number of l-projection  operators is LMAX  =           4
   number of lm-projection operators is LMMAX =           8
 
 POTCAR:    PAW_PBE Zn 06Sep2000                  
   VRHFIN =Zn: d10 p2                                                           
   LEXCH  = PE                                                                  
   EATOM  =  1748.8345 eV,  128.5357 Ry                                         
                                                                                
   TITEL  = PAW_PBE Zn 06Sep2000                                                
   LULTRA =        F    use ultrasoft PP ?                                      
   IUNSCR =        1    unscreen: 0-lin 1-nonlin 2-no                           
   RPACOR =    2.000    partial core radius                                     
   POMASS =   65.390; ZVAL   =   12.000    mass and valenz                      
   RCORE  =    2.300    outmost cutoff radius                                   
   RWIGS  =    2.400; RWIGS  =    1.270    wigner-seitz radius (au A)           
   ENMAX  =  276.723; ENMIN  =  207.542 eV                                      
   RCLOC  =    1.828    cutoff for local pot                                    
   LCOR   =        T    correct aug charges                                     
   LPAW   =        T    paw PP                                                  
   EAUG   =  575.892                                                            
   DEXC   =    0.000                                                            
   RMAX   =    2.347    core radius for proj-oper                               
   RAUG   =    1.300    factor for augmentation sphere                          
   RDEP   =    2.324    radius for radial grids                                 
   RDEPT  =    1.788    core radius for aug-charge                              
                                                                                
   Atomic configuration                                                         
    9 entries                                                                   
     n  l   j            E        occ.                                          
     1  0  0.50     -9524.6913   2.0000                                         
     2  0  0.50     -1158.1882   2.0000                                         
     2  1  1.50     -1003.8506   6.0000                                         
     3  0  0.50      -129.2194   2.0000                                         
     3  1  1.50       -83.3890   6.0000                                         
     3  2  2.50       -10.1410  10.0000                                         
     4  0  0.50        -5.9785   2.0000                                         
     4  1  0.50        -4.0817   0.0000                                         
     4  3  2.50        -1.3606   0.0000                                         
   Description                                                                  
     l       E           TYP  RCUT    TYP  RCUT                                 
     2    -10.1410010     23  2.300                                             
     2    -11.5015836     23  2.300                                             
     0     -5.9785163     23  2.300                                             
     0      1.1858015     23  2.300                                             
     1     -2.7211652     23  2.300                                             
     1     13.2444212     23  2.300                                             
  local pseudopotential read in
  partial core-charges read in
  partial kinetic energy density read in
  atomic valenz-charges read in
  non local Contribution for L=           2  read in
    real space projection operators read in
  non local Contribution for L=           2  read in
    real space projection operators read in
  non local Contribution for L=           0  read in
    real space projection operators read in
  non local Contribution for L=           0  read in
    real space projection operators read in
  non local Contribution for L=           1  read in
    real space projection operators read in
  non local Contribution for L=           1  read in
    real space projection operators read in
    PAW grid and wavefunctions read in
 
   number of l-projection  operators is LMAX  =           6
   number of lm-projection operators is LMMAX =          18
 
 POTCAR:    PAW_PBE H 15Jun2001                   
   VRHFIN =H: ultrasoft test                                                    
   LEXCH  = PE                                                                  
   EATOM  =    12.4884 eV,    0.9179 Ry                                         
                                                                                
   TITEL  = PAW_PBE H 15Jun2001                                                 
   LULTRA =        F    use ultrasoft PP ?                                      
   IUNSCR =        0    unscreen: 0-lin 1-nonlin 2-no                           
   RPACOR =    0.000    partial core radius                                     
   POMASS =    1.000; ZVAL   =    1.000    mass and valenz                      
   RCORE  =    1.100    outmost cutoff radius                                   
   RWIGS  =    0.700; RWIGS  =    0.370    wigner-seitz radius (au A)           
   ENMAX  =  250.000; ENMIN  =  200.000 eV                                      
   RCLOC  =    0.701    cutoff for local pot                                    
   LCOR   =        T    correct aug charges                                     
   LPAW   =        T    paw PP                                                  
   EAUG   =  400.000                                                            
   RMAX   =    1.123    core radius for proj-oper                               
   RAUG   =    1.200    factor for augmentation sphere                          
   RDEP   =    1.112    radius for radial grids                                 
   RDEPT  =    0.926    core radius for aug-charge                              
                                                                                
   Atomic configuration                                                         
    2 entries                                                                   
     n  l   j            E        occ.                                          
     1  0  0.50        -6.4927   1.0000                                         
     2  1  0.50        -3.4015   0.0000                                         
   Description                                                                  
     l       E           TYP  RCUT    TYP  RCUT                                 
     0     -6.4927494     23  1.100                                             
     0      6.8029130     23  1.100                                             
     1     -4.0817478     23  1.100                                             
  local pseudopotential read in
  atomic valenz-charges read in
  non local Contribution for L=           0  read in
    real space projection operators read in
  non local Contribution for L=           0  read in
    real space projection operators read in
  non local Contribution for L=           1  read in
    real space projection operators read in
    PAW grid and wavefunctions read in
 
   number of l-projection  operators is LMAX  =           3
   number of lm-projection operators is LMMAX =           5
 
 POTCAR:    PAW_PBE N 08Apr2002                   
   VRHFIN =N: s2p3                                                              
   LEXCH  = PE                                                                  
   EATOM  =   264.5486 eV,   19.4438 Ry                                         
                                                                                
   TITEL  = PAW_PBE N 08Apr2002                                                 
   LULTRA =        F    use ultrasoft PP ?                                      
   IUNSCR =        1    unscreen: 0-lin 1-nonlin 2-no                           
   RPACOR =    1.200    partial core radius                                     
   POMASS =   14.001; ZVAL   =    5.000    mass and valenz                      
   RCORE  =    1.500    outmost cutoff radius                                   
   RWIGS  =    1.400; RWIGS  =    0.741    wigner-seitz radius (au A)           
   ENMAX  =  400.000; ENMIN  =  300.000 eV                                      
   ICORE  =        2    local potential                                         
   LCOR   =        T    correct aug charges                                     
   LPAW   =        T    paw PP                                                  
   EAUG   =  627.112                                                            
   DEXC   =    0.000                                                            
   RMAX   =    1.529    core radius for proj-oper                               
   RAUG   =    1.300    factor for augmentation sphere                          
   RDEP   =    1.514    radius for radial grids                                 
   RDEPT  =    1.338    core radius for aug-charge                              
                                                                                
   Atomic configuration                                                         
    4 entries                                                                   
     n  l   j            E        occ.                                          
     1  0  0.50      -384.7179   2.0000                                         
     2  0  0.50       -18.5828   2.0000                                         
     2  1  0.50        -7.0898   3.0000                                         
     3  2  1.50        -6.8029   0.0000                                         
   Description                                                                  
     l       E           TYP  RCUT    TYP  RCUT                                 
     0    -18.5828119     23  1.200                                             
     0    -13.5018863     23  1.200                                             
     1     -7.0897853     23  1.500                                             
     1      9.5240782     23  1.500                                             
     2     -6.8029130      7  1.500                                             
  local pseudopotential read in
  partial core-charges read in
  partial kinetic energy density read in
  atomic valenz-charges read in
  non local Contribution for L=           0  read in
    real space projection operators read in
  non local Contribution for L=           0  read in
    real space projection operators read in
  non local Contribution for L=           1  read in
    real space projection operators read in
  non local Contribution for L=           1  read in
    real space projection operators read in
    PAW grid and wavefunctions read in
 
   number of l-projection  operators is LMAX  =           4
   number of lm-projection operators is LMMAX =           8
 
 POTCAR:    PAW_PBE O 08Apr2002                   
   VRHFIN =O: s2p4                                                              
   LEXCH  = PE                                                                  
   EATOM  =   432.3788 eV,   31.7789 Ry                                         
                                                                                
   TITEL  = PAW_PBE O 08Apr2002                                                 
   LULTRA =        F    use ultrasoft PP ?                                      
   IUNSCR =        1    unscreen: 0-lin 1-nonlin 2-no                           
   RPACOR =    1.200    partial core radius                                     
   POMASS =   16.000; ZVAL   =    6.000    mass and valenz                      
   RCORE  =    1.520    outmost cutoff radius                                   
   RWIGS  =    1.550; RWIGS  =    0.820    wigner-seitz radius (au A)           
   ENMAX  =  400.000; ENMIN  =  300.000 eV                                      
   ICORE  =        2    local potential                                         
   LCOR   =        T    correct aug charges                                     
   LPAW   =        T    paw PP                                                  
   EAUG   =  605.392                                                            
   DEXC   =    0.000                                                            
   RMAX   =    1.553    core radius for proj-oper                               
   RAUG   =    1.300    factor for augmentation sphere                          
   RDEP   =    1.550    radius for radial grids                                 
   RDEPT  =    1.329    core radius for aug-charge                              
                                                                                
   Atomic configuration                                                         
    4 entries                                                                   
     n  l   j            E        occ.                                          
     1  0  0.50      -514.6923   2.0000                                         
     2  0  0.50       -23.9615   2.0000                                         
     2  1  0.50        -9.0305   4.0000                                         
     3  2  1.50        -9.5241   0.0000                                         
   Description                                                                  
     l       E           TYP  RCUT    TYP  RCUT                                 
     0    -23.9615318     23  1.200                                             
     0     -9.5240782     23  1.200                                             
     1     -9.0304911     23  1.520                                             
     1      8.1634956     23  1.520                                             
     2     -9.5240782      7  1.500                                             
  local pseudopotential read in
  partial core-charges read in
  partial kinetic energy density read in
  kinetic energy density of atom read in
  atomic valenz-charges read in
  non local Contribution for L=           0  read in
    real space projection operators read in
  non local Contribution for L=           0  read in
    real space projection operators read in
  non local Contribution for L=           1  read in
    real space projection operators read in
  non local Contribution for L=           1  read in
    real space projection operators read in
    PAW grid and wavefunctions read in
 
   number of l-projection  operators is LMAX  =           4
   number of lm-projection operators is LMMAX =           8
 
 Optimization of the real space projectors (new method)

 maximal supplied QI-value         = 25.13
 optimisation between [QCUT,QGAM] = [ 12.32, 24.88] = [ 42.47,173.37] Ry 
 Optimized for a Real-space Cutoff    1.06 Angstroem

   l    n(q)    QCUT    max X(q) W(low)/X(q) W(high)/X(q)  e(spline) 
   0      8    12.315   115.676    0.34E-03    0.18E-03    0.23E-06
   0      8    12.315    87.132    0.34E-03    0.18E-03    0.22E-06
   1      7    12.315     4.429    0.45E-03    0.12E-03    0.18E-06
   1      7    12.315     2.733    0.35E-03    0.97E-04    0.15E-06
 Optimization of the real space projectors (new method)

 maximal supplied QI-value         = 16.25
 optimisation between [QCUT,QGAM] = [ 12.51, 25.03] = [ 43.85,175.40] Ry 
 Optimized for a Real-space Cutoff    1.31 Angstroem

   l    n(q)    QCUT    max X(q) W(low)/X(q) W(high)/X(q)  e(spline) 
   2      9    12.514    46.356    0.36E-03    0.54E-03    0.48E-06
   2      9    12.514    41.843    0.37E-03    0.56E-03    0.49E-06
   0     10    12.514    48.958    0.13E-03    0.28E-03    0.23E-06
   0     10    12.514    32.776    0.12E-03    0.26E-03    0.22E-06
   1      9    12.514    17.787    0.44E-03    0.44E-04    0.36E-06
   1      9    12.514    14.435    0.39E-03    0.39E-04    0.32E-06
 Optimization of the real space projectors (new method)

 maximal supplied QI-value         = 34.20
 optimisation between [QCUT,QGAM] = [ 12.31, 24.97] = [ 42.46,174.58] Ry 
 Optimized for a Real-space Cutoff    1.00 Angstroem

   l    n(q)    QCUT    max X(q) W(low)/X(q) W(high)/X(q)  e(spline) 
   0      7    12.313    19.460    0.14E-03    0.42E-03    0.16E-06
   0      7    12.313    12.209    0.12E-03    0.40E-03    0.16E-06
   1      7    12.313     4.655    0.33E-03    0.59E-03    0.89E-07
 Optimization of the real space projectors (new method)

 maximal supplied QI-value         = 25.13
 optimisation between [QCUT,QGAM] = [ 12.32, 24.88] = [ 42.47,173.37] Ry 
 Optimized for a Real-space Cutoff    1.20 Angstroem

   l    n(q)    QCUT    max X(q) W(low)/X(q) W(high)/X(q)  e(spline) 
   0      9    12.315    79.467    0.14E-03    0.22E-04    0.37E-06
   0      9    12.315    66.151    0.14E-03    0.23E-04    0.36E-06
   1      8    12.315    22.077    0.30E-03    0.54E-03    0.45E-06
   1      8    12.315    15.894    0.30E-03    0.55E-03    0.45E-06
 Optimization of the real space projectors (new method)

 maximal supplied QI-value         = 24.76
 optimisation between [QCUT,QGAM] = [ 12.38, 25.00] = [ 42.90,175.06] Ry 
 Optimized for a Real-space Cutoff    1.13 Angstroem

   l    n(q)    QCUT    max X(q) W(low)/X(q) W(high)/X(q)  e(spline) 
   0      8    12.378    20.381    0.16E-03    0.54E-05    0.27E-06
   0      8    12.378    15.268    0.17E-03    0.61E-05    0.29E-06
   1      8    12.378     5.964    0.38E-03    0.23E-03    0.28E-06
   1      8    12.378     5.382    0.33E-03    0.20E-03    0.25E-06
  PAW_PBE C 08Apr2002                   :
 energy of atom  1       EATOM= -147.1560
 kinetic energy error for atom=    0.0057 (will be added to EATOM!!)
  PAW_PBE Zn 06Sep2000                  :
 energy of atom  2       EATOM=-1748.8345
 kinetic energy error for atom=    0.0020 (will be added to EATOM!!)
  PAW_PBE H 15Jun2001                   :
 energy of atom  3       EATOM=  -12.4884
 kinetic energy error for atom=    0.0004 (will be added to EATOM!!)
  PAW_PBE N 08Apr2002                   :
 energy of atom  4       EATOM= -264.5486
 kinetic energy error for atom=    0.0103 (will be added to EATOM!!)
  PAW_PBE O 08Apr2002                   :
 energy of atom  5       EATOM= -432.3788
 kinetic energy error for atom=    0.0168 (will be added to EATOM!!)
 
 
 POSCAR: Zn_H
  positions in direct lattice
  velocities in cartesian coordinates
 exchange correlation table for  LEXCH =        8
   RHO(1)=    0.500       N(1)  =     2000
   RHO(2)=  100.500       N(2)  =     4000
 


--------------------------------------------------------------------------------------------------------


 ion  position               nearest neighbor table
   1  0.911  0.957  0.167- 107 1.08 117 1.33  65 1.39
   2  0.723  0.951  0.415- 112 1.09 118 1.36  65 1.40
   3  0.911  0.798  0.879- 116 1.08 119 1.33  66 1.39
   4  0.590  0.457  0.666- 110 1.08 120 1.33  67 1.39
   5  0.776  0.304  0.131- 111 1.09 121 1.36  68 1.40
   6  0.276  0.805  0.131- 115 1.09 122 1.36  69 1.40
   7  0.776  0.451  0.915- 101 1.09 123 1.36  67 1.40
   8  0.589  0.298  0.379- 113 1.08 124 1.33  68 1.39
   9  0.224  0.451  0.415- 114 1.09 125 1.36  70 1.40
  10  0.089  0.798  0.380- 104 1.08 126 1.33  69 1.39
  11  0.276  0.951  0.915- 105 1.09 127 1.36  71 1.40
  12  0.224  0.305  0.631- 102 1.09 128 1.36  72 1.40
  13  0.724  0.804  0.631- 108 1.09 129 1.36  66 1.40
  14  0.089  0.957  0.667- 109 1.08 130 1.33  71 1.39
  15  0.411  0.298  0.879- 106 1.08 131 1.33  72 1.39
  16  0.411  0.457  0.166- 103 1.08 132 1.33  70 1.39
  17  0.687  0.031  0.119- 141 1.23 133 1.41  33 1.48
  18  0.829  0.052  0.471- 142 1.23 133 1.41  34 1.48
  19  0.829  0.704  0.573- 143 1.23 134 1.41  35 1.48
  20  0.671  0.552  0.971- 144 1.23 135 1.41  36 1.48
  21  0.671  0.204  0.073- 145 1.23 136 1.41  37 1.48
  22  0.312  0.725  0.426- 146 1.23 137 1.41  38 1.48
  23  0.813  0.531  0.619- 147 1.23 135 1.41  39 1.48
  24  0.812  0.225  0.426- 148 1.23 136 1.41  40 1.48
  25  0.188  0.531  0.119- 149 1.23 138 1.41  41 1.48
  26  0.171  0.704  0.074- 150 1.23 137 1.41  42 1.48
  27  0.171  0.052  0.971- 151 1.23 139 1.41  43 1.48
  28  0.328  0.204  0.573- 152 1.23 140 1.41  44 1.48
  29  0.688  0.725  0.926- 153 1.23 134 1.41  45 1.48
  30  0.312  0.031  0.619- 154 1.23 139 1.41  46 1.48
  31  0.188  0.225  0.926- 155 1.23 140 1.41  47 1.48
  32  0.329  0.552  0.471- 156 1.23 138 1.41  48 1.48
  33  0.690  0.075  0.107-  49 1.38  73 1.41  17 1.48
  34  0.819  0.096  0.459-  50 1.39  73 1.41  18 1.48
  35  0.820  0.660  0.585-  51 1.39  74 1.41  19 1.48
  36  0.681  0.596  0.959-  52 1.39  75 1.41  20 1.48
  37  0.680  0.160  0.085-  53 1.39  76 1.41  21 1.48
  38  0.310  0.681  0.437-  54 1.38  77 1.41  22 1.48
  39  0.810  0.575  0.607-  55 1.38  75 1.41  23 1.48
  40  0.809  0.181  0.437-  56 1.38  76 1.41  24 1.48
  41  0.190  0.575  0.108-  57 1.38  78 1.41  25 1.48
  42  0.181  0.660  0.086-  58 1.39  77 1.41  26 1.48
  43  0.180  0.096  0.959-  59 1.39  79 1.41  27 1.48
  44  0.319  0.160  0.586-  60 1.39  80 1.41  28 1.48
  45  0.690  0.681  0.937-  61 1.38  74 1.41  29 1.48
  46  0.310  0.075  0.607-  62 1.38  79 1.41  30 1.48
  47  0.190  0.181  0.937-  63 1.38  80 1.41  31 1.48
  48  0.320  0.596  0.459-  64 1.39  78 1.41  32 1.48
  49  0.626  0.086  0.930-  88 1.09  33 1.38  53 1.40
  50  0.880  0.128  0.624-  99 1.08  34 1.39  56 1.40
  51  0.880  0.628  0.420-  93 1.08  35 1.39  55 1.40
  52  0.620  0.628  0.124-  90 1.08  36 1.39  61 1.40
  53  0.620  0.128  0.920-  98 1.08  37 1.39  49 1.40
  54  0.374  0.670  0.615-  96 1.09  38 1.38  64 1.40
  55  0.873  0.586  0.430-  86 1.09  39 1.38  51 1.40
  56  0.873  0.170  0.614-  87 1.09  40 1.38  50 1.40
  57  0.127  0.586  0.930-  95 1.09  41 1.38  58 1.40
  58  0.120  0.628  0.920-  91 1.08  42 1.39  57 1.40
  59  0.119  0.128  0.124-  92 1.08  43 1.39  63 1.40
  60  0.379  0.128  0.420-  85 1.08  44 1.39  62 1.40
  61  0.627  0.670  0.114-  89 1.09  45 1.38  52 1.40
  62  0.373  0.086  0.430- 100 1.09  46 1.38  60 1.40
  63  0.126  0.170  0.115-  94 1.09  47 1.38  59 1.40
  64  0.381  0.628  0.625-  97 1.08  48 1.39  54 1.40
  65  0.784  0.979  0.299-   1 1.39   2 1.40 133 1.42
  66  0.785  0.777  0.746-   3 1.39  13 1.40 134 1.42
  67  0.716  0.479  0.799-   4 1.39   7 1.40 135 1.42
  68  0.715  0.277  0.246-   8 1.39   5 1.40 136 1.42
  69  0.215  0.777  0.247-  10 1.39   6 1.40 137 1.42
  70  0.284  0.479  0.299-  16 1.39   9 1.40 138 1.42
  71  0.215  0.979  0.799-  14 1.39  11 1.40 139 1.42
  72  0.285  0.277  0.747-  15 1.39  12 1.40 140 1.42
  73  0.751  0.106  0.278-  34 1.41  33 1.41  76 1.42
  74  0.752  0.649  0.766-  35 1.41  45 1.41  75 1.42
  75  0.748  0.607  0.778-  36 1.41  39 1.41  74 1.42
  76  0.747  0.149  0.266-  37 1.41  40 1.41  73 1.42
  77  0.248  0.649  0.267-  42 1.41  38 1.41  78 1.42
  78  0.252  0.607  0.278-  48 1.41  41 1.41  77 1.42
  79  0.248  0.107  0.778-  43 1.41  46 1.41  80 1.42
  80  0.252  0.149  0.767-  44 1.41  47 1.41  79 1.42
  81  0.092  0.878  0.023- 122 1.98 127 1.98 117 2.02 119 2.02
  82  0.908  0.878  0.523- 129 1.98 118 1.98 130 2.02 126 2.02
  83  0.408  0.378  0.523- 128 1.98 125 1.98 120 2.02 124 2.02
  84  0.592  0.378  0.023- 121 1.98 123 1.98 132 2.02 131 2.02
  85  0.430  0.137  0.282-  60 1.08
  86  0.916  0.561  0.299-  55 1.09
  87  0.916  0.195  0.745-  56 1.09
  88  0.584  0.061  0.799-  49 1.09
  89  0.583  0.695  0.245-  61 1.09
  90  0.569  0.619  0.262-  52 1.08
  91  0.070  0.637  0.782-  58 1.08
  92  0.068  0.119  0.262-  59 1.08
  93  0.931  0.637  0.281-  51 1.08
  94  0.083  0.195  0.245-  63 1.09
  95  0.084  0.561  0.799-  57 1.09
  96  0.417  0.695  0.745-  54 1.09
  97  0.431  0.619  0.762-  64 1.08
  98  0.569  0.137  0.782-  53 1.08
  99  0.931  0.119  0.762-  50 1.08
 100  0.416  0.061  0.299-  62 1.09
 101  0.872  0.456  0.038-   7 1.09
 102  0.128  0.300  0.508-  12 1.09
 103  0.489  0.469  0.055-  16 1.08
 104  0.011  0.787  0.491-  10 1.08
 105  0.372  0.956  0.038-  11 1.09
 106  0.489  0.287  0.990-  15 1.08
 107  0.989  0.969  0.056-   1 1.08
 108  0.628  0.800  0.508-  13 1.09
 109  0.011  0.969  0.556-  14 1.08
 110  0.512  0.469  0.555-   4 1.08
 111  0.872  0.300  0.007-   5 1.09
 112  0.627  0.956  0.537-   2 1.09
 113  0.511  0.287  0.490-   8 1.08
 114  0.128  0.456  0.538-   9 1.09
 115  0.372  0.800  0.008-   6 1.09
 116  0.989  0.787  0.990-   3 1.08
 117  0.927  0.919  0.201-   1 1.33 118 1.38  81 2.02
 118  0.811  0.915  0.353-   2 1.36 117 1.38  82 1.98
 119  0.927  0.837  0.846-   3 1.33 129 1.38  81 2.02
 120  0.573  0.419  0.701-   4 1.33 123 1.38  83 2.02
 121  0.688  0.341  0.193-   5 1.36 124 1.38  84 1.98
 122  0.188  0.841  0.194-   6 1.36 126 1.38  81 1.98
 123  0.688  0.415  0.853-   7 1.36 120 1.38  84 1.98
 124  0.572  0.337  0.345-   8 1.33 121 1.38  83 2.02
 125  0.312  0.415  0.353-   9 1.36 132 1.38  83 1.98
 126  0.072  0.837  0.346-  10 1.33 122 1.38  82 2.02
 127  0.188  0.915  0.853-  11 1.36 130 1.38  81 1.98
 128  0.312  0.341  0.694-  12 1.36 131 1.38  83 1.98
 129  0.812  0.841  0.694-  13 1.36 119 1.38  82 1.98
 130  0.072  0.919  0.701-  14 1.33 127 1.38  82 2.02
 131  0.427  0.337  0.846-  15 1.33 128 1.38  84 2.02
 132  0.427  0.419  0.201-  16 1.33 125 1.38  84 2.02
 133  0.751  0.022  0.307-  18 1.41  17 1.41  65 1.42
 134  0.752  0.734  0.738-  19 1.41  29 1.41  66 1.42
 135  0.749  0.522  0.806-  20 1.41  23 1.41  67 1.42
 136  0.748  0.234  0.238-  21 1.41  24 1.41  68 1.42
 137  0.249  0.734  0.238-  26 1.41  22 1.41  69 1.42
 138  0.251  0.522  0.307-  32 1.41  25 1.41  70 1.42
 139  0.249  0.022  0.807-  27 1.41  30 1.41  71 1.42
 140  0.251  0.234  0.738-  28 1.41  31 1.41  72 1.42
 141  0.631  0.003  0.975-  17 1.23
 142  0.900  0.041  0.619-  18 1.23
 143  0.900  0.714  0.425-  19 1.23
 144  0.600  0.541  0.119-  20 1.23
 145  0.600  0.214  0.925-  21 1.23
 146  0.368  0.753  0.570-  22 1.23
 147  0.868  0.503  0.474-  23 1.23
 148  0.868  0.253  0.570-  24 1.23
 149  0.132  0.503  0.975-  25 1.23
 150  0.100  0.714  0.926-  26 1.23
 151  0.100  0.041  0.119-  27 1.23
 152  0.399  0.214  0.425-  28 1.23
 153  0.632  0.753  0.070-  29 1.23
 154  0.368  0.003  0.475-  30 1.23
 155  0.132  0.253  0.071-  31 1.23
 156  0.400  0.541  0.619-  32 1.23
 

IMPORTANT INFORMATION: All symmetrisations will be switched off!
NOSYMM: (Re-)initialisation of all symmetry stuff for point group C_1.


----------------------------------------------------------------------------------------

                                     Primitive cell                                     

  volume of cell :    1628.6964

  direct lattice vectors                    reciprocal lattice vectors
     7.842905693 -0.000467258 -0.000270590     0.127503763 -0.000013760 -0.000027021
     0.002695719 32.600743528 -3.880660059     0.000001990  0.031138649  0.003902197
     0.001282933 -0.810349496  6.466405152     0.000006530  0.018687123  0.156987239

  length of vectors
     7.842905712 32.830900206  6.516982702     0.127503766  0.031382202  0.158095547

  position of ions in fractional coordinates (direct lattice)
     0.910604695  0.957435392  0.166767795
     0.723134382  0.951325902  0.414503256
     0.911059970  0.798376103  0.879346802
     0.589552916  0.457384806  0.666060090
     0.775607922  0.304426876  0.130810468
     0.275914382  0.804503132  0.131210713
     0.776344835  0.451361862  0.914598602
     0.588557539  0.298339282  0.379048547
     0.223641661  0.451413222  0.414947452
     0.089081308  0.798417865  0.379661154
     0.276156426  0.951386355  0.914668493
     0.223778339  0.304516030  0.631261764
     0.724156597  0.804456202  0.631029189
     0.088885950  0.957462345  0.666738227
     0.410847156  0.298383921  0.879305923
     0.410534368  0.457433118  0.166429471
     0.687194178  0.030584926  0.118778591
     0.828522713  0.051844743  0.471151338
     0.829191977  0.703876388  0.573118180
     0.671273063  0.551838650  0.970967451
     0.670526709  0.203849949  0.073145533
     0.312223169  0.725176609  0.426195078
     0.812581410  0.530592498  0.618515441
     0.811645446  0.225101631  0.425723571
     0.187666616  0.530668330  0.119100387
     0.171087690  0.703942798  0.073634842
     0.170799287  0.051888266  0.971374265
     0.328463032  0.203929111  0.573367954
     0.688198132  0.725105626  0.925822820
     0.312066748  0.030644085  0.618875062
     0.187595808  0.225167816  0.926160901
     0.329112658  0.551900971  0.471400184
     0.689590021  0.075001812  0.107297666
     0.819185150  0.096077321  0.458907440
     0.819817084  0.659625032  0.585251361
     0.680630169  0.596072406  0.958773998
     0.679935594  0.159605324  0.085343981
     0.310048177  0.680742368  0.437371041
     0.810210011  0.575013799  0.607104108
     0.809395355  0.180673434  0.437031321
     0.190201116  0.575083457  0.107566717
     0.180568475  0.659691475  0.085689001
     0.180068087  0.096120374  0.959118977
     0.319155372  0.159679653  0.585534472
     0.690374102  0.680671587  0.937011784
     0.309616173  0.075065129  0.607424878
     0.189707425  0.180728686  0.937293565
     0.319782448  0.596137919  0.459191401
     0.626329592  0.085861030  0.929786319
     0.879927869  0.127607062  0.624194547
     0.880032450  0.628079538  0.419578435
     0.619850740  0.627595175  0.124106450
     0.619704144  0.128054406  0.919750451
     0.373795147  0.669859900  0.614592358
     0.873428036  0.585879676  0.429577727
     0.873188045  0.169799066  0.614244136
     0.126975290  0.585951527  0.930050445
     0.120344601  0.628144853  0.920053784
     0.119309209  0.127646990  0.124462962
     0.379412262  0.128133483  0.419902130
     0.626568288  0.669788796  0.114221338
     0.372828328  0.085938846  0.429906240
     0.125978795  0.169840870  0.114536372
     0.380516106  0.627666950  0.624512536
     0.784012449  0.979019120  0.298894892
     0.785133084  0.776729309  0.746325861
     0.715777628  0.479014402  0.798589664
     0.714617610  0.276703052  0.246135763
     0.215115996  0.776788651  0.246697649
     0.284376775  0.479076813  0.299089075
     0.215316995  0.979068576  0.798995010
     0.284657172  0.276779769  0.746571895
     0.751412810  0.106498584  0.277958786
     0.752315398  0.649187258  0.766345290
     0.748378451  0.606503860  0.777814315
     0.747457087  0.149177959  0.266425580
     0.248121289  0.649252328  0.266729214
     0.252044038  0.606573682  0.278245767
     0.247771462  0.106557889  0.778134239
     0.251648729  0.149239780  0.766626367
     0.091903325  0.877984682  0.023437052
     0.907886736  0.877984085  0.523396247
     0.407928209  0.377981009  0.523316321
     0.591874883  0.377980235  0.023326141
     0.429938237  0.136869374  0.281644203
     0.916170735  0.560791146  0.298955332
     0.916392197  0.194883348  0.744603887
     0.583523868  0.060766845  0.799236530
     0.583377737  0.694869986  0.244602586
     0.568900563  0.618833001  0.262073819
     0.069779961  0.636884039  0.781841925
     0.068406564  0.118890765  0.262472098
     0.930539613  0.636809533  0.281297545
     0.082857506  0.194922936  0.244979235
     0.084182402  0.560860422  0.799460823
     0.416939979  0.694942730  0.744992776
     0.431430806  0.618910999  0.762495034
     0.569151255  0.136785531  0.781507430
     0.930878035  0.118851049  0.762165691
     0.415604007  0.060851176  0.299266464
     0.872339074  0.455810825  0.037893253
     0.127704697  0.300100373  0.508070626
     0.488538073  0.468838893  0.055213967
     0.011188452  0.786980846  0.490864924
     0.372337114  0.955808683  0.037732160
     0.488847480  0.286922482  0.990295561
     0.988852574  0.968881749  0.055920525
     0.628208481  0.800018175  0.507694897
     0.010739777  0.968888515  0.555746861
     0.511659448  0.468782790  0.554749914
     0.871601405  0.299996009  0.007476087
     0.626728816  0.955728824  0.537352075
     0.510524924  0.286896189  0.490091190
     0.127611886  0.455857806  0.538237030
     0.371874663  0.800071210  0.007834044
     0.989065951  0.786934893  0.990411073
     0.927377735  0.919181086  0.201024373
     0.811382461  0.914865624  0.352651068
     0.927473042  0.836691926  0.845701524
     0.572653996  0.419149963  0.700535173
     0.687911508  0.340950494  0.193479984
     0.188097247  0.841007575  0.193769169
     0.688252801  0.414887435  0.852628152
     0.572143043  0.336653997  0.345392255
     0.311576748  0.414915791  0.352759473
     0.072457601  0.836712795  0.345824332
     0.188062902  0.914911956  0.852719612
     0.311684994  0.341008082  0.693721735
     0.811776304  0.840984363  0.693736677
     0.072168729  0.919208422  0.701008100
     0.427469191  0.336682943  0.845528496
     0.427245272  0.419175795  0.200686679
     0.750650629  0.021972282  0.306726084
     0.751823257  0.733756100  0.738020235
     0.749093530  0.521968501  0.806444727
     0.747965627  0.233735871  0.237929214
     0.248529231  0.733821421  0.238441977
     0.251174878  0.522039383  0.306991429
     0.248630052  0.022022034  0.806843223
     0.251192055  0.233815760  0.738334045
     0.631363298  0.002510831  0.974585114
     0.899814060  0.041382163  0.618951663
     0.900065555  0.714337947  0.425009955
     0.600015373  0.541372048  0.118812856
     0.599607339  0.214304768  0.925076543
     0.368023106  0.753239230  0.570478041
     0.868457241  0.502523908  0.474280456
     0.867591007  0.253163244  0.569902933
     0.131620233  0.502608950  0.975003516
     0.100063031  0.714413223  0.925681786
     0.099644665  0.041414242  0.119266734
     0.399240900  0.214393147  0.425207981
     0.632361687  0.753164532  0.070128462
     0.367992787  0.002577143  0.474671766
     0.131928276  0.253232661  0.070564763
     0.400428498  0.541428894  0.619156173

  ion indices of the primitive-cell ions
   primitive index   ion index
                 1           1
                 2           2
                 3           3
                 4           4
                 5           5
                 6           6
                 7           7
                 8           8
                 9           9
                10          10
                11          11
                12          12
                13          13
                14          14
                15          15
                16          16
                17          17
                18          18
                19          19
                20          20
                21          21
                22          22
                23          23
                24          24
                25          25
                26          26
                27          27
                28          28
                29          29
                30          30
                31          31
                32          32
                33          33
                34          34
                35          35
                36          36
                37          37
                38          38
                39          39
                40          40
                41          41
                42          42
                43          43
                44          44
                45          45
                46          46
                47          47
                48          48
                49          49
                50          50
                51          51
                52          52
                53          53
                54          54
                55          55
                56          56
                57          57
                58          58
                59          59
                60          60
                61          61
                62          62
                63          63
                64          64
                65          65
                66          66
                67          67
                68          68
                69          69
                70          70
                71          71
                72          72
                73          73
                74          74
                75          75
                76          76
                77          77
                78          78
                79          79
                80          80
                81          81
                82          82
                83          83
                84          84
                85          85
                86          86
                87          87
                88          88
                89          89
                90          90
                91          91
                92          92
                93          93
                94          94
                95          95
                96          96
                97          97
                98          98
                99          99
               100         100
               101         101
               102         102
               103         103
               104         104
               105         105
               106         106
               107         107
               108         108
               109         109
               110         110
               111         111
               112         112
               113         113
               114         114
               115         115
               116         116
               117         117
               118         118
               119         119
               120         120
               121         121
               122         122
               123         123
               124         124
               125         125
               126         126
               127         127
               128         128
               129         129
               130         130
               131         131
               132         132
               133         133
               134         134
               135         135
               136         136
               137         137
               138         138
               139         139
               140         140
               141         141
               142         142
               143         143
               144         144
               145         145
               146         146
               147         147
               148         148
               149         149
               150         150
               151         151
               152         152
               153         153
               154         154
               155         155
               156         156

----------------------------------------------------------------------------------------

 
 

Automatic generation of k-mesh.
 generate k-points for:    3    1    4
Space group operators:
 irot       det(A)        alpha          n_x          n_y          n_z        tau_x        tau_y        tau_z
    1     1.000000     0.000000     1.000000     0.000000     0.000000     0.000000     0.000000     0.000000
 
 Subroutine IBZKPT returns following result:
 ===========================================
 
 Found      7 irreducible k-points:
 
 Following reciprocal coordinates:
            Coordinates               Weight
  0.000000  0.000000  0.000000      1.000000
  0.333333 -0.000000 -0.000000      2.000000
 -0.000000 -0.000000  0.250000      2.000000
  0.333333  0.000000  0.250000      2.000000
 -0.333333 -0.000000  0.250000      2.000000
 -0.000000 -0.000000  0.500000      1.000000
  0.333333 -0.000000  0.500000      2.000000
 
 Following cartesian coordinates:
            Coordinates               Weight
  0.000000  0.000000  0.000000      1.000000
  0.042501 -0.000005 -0.000009      2.000000
  0.000002  0.004672  0.039247      2.000000
  0.042503  0.004667  0.039238      2.000000
 -0.042500  0.004676  0.039256      2.000000
  0.000003  0.009344  0.078494      1.000000
  0.042505  0.009339  0.078485      2.000000
 


--------------------------------------------------------------------------------------------------------




 Dimension of arrays:
   k-points           NKPTS =      7   k-points in BZ     NKDIM =      7   number of bands    NBANDS=    400
   number of dos      NEDOS =    301   number of ions     NIONS =    156
   non local maximal  LDIM  =      6   non local SUM 2l+1 LMDIM =     18
   total plane-waves  NPLWV = 384000
   max r-space proj   IRMAX =   2253   max aug-charges    IRDMAX=   7226
   dimension x,y,z NGX =    48 NGY =  200 NGZ =   40
   dimension x,y,z NGXF=    96 NGYF=  400 NGZF=   80
   support grid    NGXF=    96 NGYF=  400 NGZF=   80
   ions per type =              80   4  32  24  16
   NGX,Y,Z   is equivalent  to a cutoff of  10.17, 10.13, 10.20 a.u.
   NGXF,Y,Z  is equivalent  to a cutoff of  20.35, 20.25, 20.41 a.u.

 SYSTEM =  flex_MOF                                
 POSCAR =  Zn_H                                    

 Startparameter for this run:
   NWRITE =      2    write-flag & timer
   PREC   = normal    normal or accurate (medium, high low for compatibility)
   ISTART =      0    job   : 0-new  1-cont  2-samecut
   ICHARG =      2    charge: 1-file 2-atom 10-const
   ISPIN  =      1    spin polarized calculation?
   LNONCOLLINEAR =      F non collinear calculations
   LSORBIT =      F    spin-orbit coupling
   INIWAV =      1    electr: 0-lowe 1-rand  2-diag
   LASPH  =      F    aspherical Exc in radial PAW
   METAGGA=      F    non-selfconsistent MetaGGA calc.

 Electronic Relaxation 1
   ENCUT  =  600.0 eV  44.10 Ry    6.64 a.u.  15.66 65.57 13.02*2*pi/ulx,y,z
   ENINI  =  600.0     initial cutoff
   ENAUG  =  644.9 eV  augmentation charge cutoff
   NELM   =     80;   NELMIN=  4; NELMDL=-12     # of ELM steps 
   EDIFF  = 0.1E-05   stopping-criterion for ELM
   LREAL  =      T    real-space projection
   NLSPLINE    = F    spline interpolate recip. space projectors
   LCOMPAT=      F    compatible to vasp.4.4
   GGA_COMPAT  = T    GGA compatible to vasp.4.4-vasp.4.6
   LMAXPAW     = -100 max onsite density
   LMAXMIX     =    2 max onsite mixed and CHGCAR
   VOSKOWN=      0    Vosko Wilk Nusair interpolation
   ROPT   =   -0.00050  -0.00050  -0.00050  -0.00050
   ROPT   =   -0.00050
 Ionic relaxation
   EDIFFG = -.1E-01   stopping-criterion for IOM
   NSW    =   1000    number of steps for IOM
   NBLOCK =      1;   KBLOCK =   1000    inner block; outer block 
   IBRION =      2    ionic relax: 0-MD 1-quasi-New 2-CG
   NFREE  =      1    steps in history (QN), initial steepest desc. (CG)
   ISIF   =      4    stress and relaxation
   IWAVPR =     11    prediction:  0-non 1-charg 2-wave 3-comb
   ISYM   =      0    0-nonsym 1-usesym 2-fastsym
   LCORR  =      T    Harris-Foulkes like correction to forces

   POTIM  = 0.5000    time-step for ionic-motion
   TEIN   =    0.0    initial temperature
   TEBEG  =    0.0;   TEEND  =   0.0 temperature during run
   SMASS  =  -3.00    Nose mass-parameter (am)
   estimated Nose-frequenzy (Omega)   =  0.10E-29 period in steps = 0.13E+47 mass=  -0.141E-26a.u.
   SCALEE = 1.0000    scale energy and forces
   NPACO  =    256;   APACO  = 16.0  distance and # of slots for P.C.
   PSTRESS=    0.0 pullay stress

  Mass of Ions in am
   POMASS =  12.01 65.39  1.00 14.00 16.00
  Ionic Valenz
   ZVAL   =   4.00 12.00  1.00  5.00  6.00
  Atomic Wigner-Seitz radii
   RWIGS  =  -1.00 -1.00 -1.00 -1.00 -1.00
  virtual crystal weights 
   VCA    =   1.00  1.00  1.00  1.00  1.00
   NELECT =     616.0000    total number of electrons
   NUPDOWN=      -1.0000    fix difference up-down

 DOS related values:
   EMIN   =  10.00;   EMAX   =-10.00  energy-range for DOS
   EFERMI =   0.00
   ISMEAR =     0;   SIGMA  =   0.05  broadening in eV -4-tet -1-fermi 0-gaus

 Electronic relaxation 2 (details)
   IALGO  =     48    algorithm
   LDIAG  =      T    sub-space diagonalisation (order eigenvalues)
   LSUBROT=      F    optimize rotation matrix (better conditioning)
   TURBO    =      0    0=normal 1=particle mesh
   IRESTART =      0    0=no restart 2=restart with 2 vectors
   NREBOOT  =      0    no. of reboots
   NMIN     =      0    reboot dimension
   EREF     =   0.00    reference energy to select bands
   IMIX   =      4    mixing-type and parameters
     AMIX     =   0.40;   BMIX     =  1.00
     AMIX_MAG =   1.60;   BMIX_MAG =  1.00
     AMIN     =   0.10
     WC   =   100.;   INIMIX=   1;  MIXPRE=   1;  MAXMIX= -45

 Intra band minimization:
   WEIMIN = 0.0010     energy-eigenvalue tresh-hold
   EBREAK =  0.63E-09  absolut break condition
   DEPER  =   0.30     relativ break condition  

   TIME   =   0.40     timestep for ELM

  volume/ion in A,a.u.               =      10.44        70.46
  Fermi-wavevector in a.u.,A,eV,Ry     =   1.183918  2.237281 19.070772  1.401662
  Thomas-Fermi vector in A             =   2.320143
 
 Write flags
   LWAVE        =      T    write WAVECAR
   LDOWNSAMPLE  =      F    k-point downsampling of WAVECAR
   LCHARG       =      T    write CHGCAR
   LVTOT        =      F    write LOCPOT, total local potential
   LVHAR        =      F    write LOCPOT, Hartree potential only
   LELF         =      F    write electronic localiz. function (ELF)
   LORBIT       =      0    0 simple, 1 ext, 2 COOP (PROOUT), +10 PAW based schemes


 Dipole corrections
   LMONO  =      F    monopole corrections only (constant potential shift)
   LDIPOL =      F    correct potential (dipole corrections)
   IDIPOL =      0    1-x, 2-y, 3-z, 4-all directions 
   EPSILON=  1.0000000 bulk dielectric constant

 Exchange correlation treatment:
   GGA     =    PE    GGA type
   LEXCH   =     8    internal setting for exchange type
   VOSKOWN=      0    Vosko Wilk Nusair interpolation
   LHFCALC =     F    Hartree Fock is set to
   LHFONE  =     F    Hartree Fock one center treatment
   AEXX    =    0.0000 exact exchange contribution

 Linear response parameters
   LEPSILON=     F    determine dielectric tensor
   LRPA    =     F    only Hartree local field effects (RPA)
   LNABLA  =     F    use nabla operator in PAW spheres
   LVEL    =     F    velocity operator in full k-point grid
   LINTERFAST=   F  fast interpolation
   KINTER  =     0    interpolate to denser k-point grid
   CSHIFT  =0.1000    complex shift for real part using Kramers Kronig
   OMEGAMAX=  -1.0    maximum frequency
   DEG_THRESHOLD= 0.2000000E-02 threshold for treating states as degnerate
   RTIME   =   -0.100 relaxation time in fs
  (WPLASMAI=    0.000 imaginary part of plasma frequency in eV, 0.658/RTIME)
   DFIELD  = 0.0000000 0.0000000 0.0000000 field for delta impulse in time
 
 Orbital magnetization related:
   ORBITALMAG=     F  switch on orbital magnetization
   LCHIMAG   =     F  perturbation theory with respect to B field
   DQ        =  0.001000  dq finite difference perturbation B field
   LLRAUG    =     F  two centre corrections for induced B field



--------------------------------------------------------------------------------------------------------


 conjugate gradient relaxation of ions
 charge density and potential will be updated during run
 non-spin polarized calculation
 RMM-DIIS sequential band-by-band
 perform sub-space diagonalisation
    before iterative eigenvector-optimisation
 modified Broyden-mixing scheme, WC =      100.0
 initial mixing is a Kerker type mixing with AMIX =  0.4000 and BMIX =      1.0000
 Hartree-type preconditioning will be used
 using additional bands           92
 real space projection scheme for non local part
 use partial core corrections
 calculate Harris-corrections to forces 
   (improved forces if not selfconsistent)
 use gradient corrections 
 use of overlap-Matrix (Vanderbilt PP)
 Gauss-broadening in eV      SIGMA  =   0.05


--------------------------------------------------------------------------------------------------------


  energy-cutoff  :      600.00
  volume of cell :     1628.70
      direct lattice vectors                 reciprocal lattice vectors
     7.842905693 -0.000467258 -0.000270590     0.127503763 -0.000013760 -0.000027021
     0.002695719 32.600743528 -3.880660059     0.000001990  0.031138649  0.003902197
     0.001282933 -0.810349496  6.466405152     0.000006530  0.018687123  0.156987239

  length of vectors
     7.842905712 32.830900206  6.516982702     0.127503766  0.031382202  0.158095547


 
 k-points in units of 2pi/SCALE and weight: read from INCAR                         
   0.00000000  0.00000000  0.00000000       0.083
   0.04250125 -0.00000459 -0.00000901       0.167
   0.00000163  0.00467178  0.03924681       0.167
   0.04250289  0.00466719  0.03923780       0.167
  -0.04249962  0.00467637  0.03925582       0.167
   0.00000326  0.00934356  0.07849362       0.083
   0.04250452  0.00933897  0.07848461       0.167
 
 k-points in reciprocal lattice and weights: read from INCAR                         
   0.00000000  0.00000000  0.00000000       0.083
   0.33333333 -0.00000000 -0.00000000       0.167
  -0.00000000 -0.00000000  0.25000000       0.167
   0.33333333  0.00000000  0.25000000       0.167
  -0.33333333 -0.00000000  0.25000000       0.167
  -0.00000000 -0.00000000  0.50000000       0.083
   0.33333333 -0.00000000  0.50000000       0.167
 
 position of ions in fractional coordinates (direct lattice) 
   0.91060470  0.95743539  0.16676780
   0.72313438  0.95132590  0.41450326
   0.91105997  0.79837610  0.87934680
   0.58955292  0.45738481  0.66606009
   0.77560792  0.30442688  0.13081047
   0.27591438  0.80450313  0.13121071
   0.77634484  0.45136186  0.91459860
   0.58855754  0.29833928  0.37904855
   0.22364166  0.45141322  0.41494745
   0.08908131  0.79841786  0.37966115
   0.27615643  0.95138636  0.91466849
   0.22377834  0.30451603  0.63126176
   0.72415660  0.80445620  0.63102919
   0.08888595  0.95746234  0.66673823
   0.41084716  0.29838392  0.87930592
   0.41053437  0.45743312  0.16642947
   0.68719418  0.03058493  0.11877859
   0.82852271  0.05184474  0.47115134
   0.82919198  0.70387639  0.57311818
   0.67127306  0.55183865  0.97096745
   0.67052671  0.20384995  0.07314553
   0.31222317  0.72517661  0.42619508
   0.81258141  0.53059250  0.61851544
   0.81164545  0.22510163  0.42572357
   0.18766662  0.53066833  0.11910039
   0.17108769  0.70394280  0.07363484
   0.17079929  0.05188827  0.97137427
   0.32846303  0.20392911  0.57336795
   0.68819813  0.72510563  0.92582282
   0.31206675  0.03064408  0.61887506
   0.18759581  0.22516782  0.92616090
   0.32911266  0.55190097  0.47140018
   0.68959002  0.07500181  0.10729767
   0.81918515  0.09607732  0.45890744
   0.81981708  0.65962503  0.58525136
   0.68063017  0.59607241  0.95877400
   0.67993559  0.15960532  0.08534398
   0.31004818  0.68074237  0.43737104
   0.81021001  0.57501380  0.60710411
   0.80939535  0.18067343  0.43703132
   0.19020112  0.57508346  0.10756672
   0.18056848  0.65969147  0.08568900
   0.18006809  0.09612037  0.95911898
   0.31915537  0.15967965  0.58553447
   0.69037410  0.68067159  0.93701178
   0.30961617  0.07506513  0.60742488
   0.18970742  0.18072869  0.93729356
   0.31978245  0.59613792  0.45919140
   0.62632959  0.08586103  0.92978632
   0.87992787  0.12760706  0.62419455
   0.88003245  0.62807954  0.41957844
   0.61985074  0.62759518  0.12410645
   0.61970414  0.12805441  0.91975045
   0.37379515  0.66985990  0.61459236
   0.87342804  0.58587968  0.42957773
   0.87318805  0.16979907  0.61424414
   0.12697529  0.58595153  0.93005044
   0.12034460  0.62814485  0.92005378
   0.11930921  0.12764699  0.12446296
   0.37941226  0.12813348  0.41990213
   0.62656829  0.66978880  0.11422134
   0.37282833  0.08593885  0.42990624
   0.12597879  0.16984087  0.11453637
   0.38051611  0.62766695  0.62451254
   0.78401245  0.97901912  0.29889489
   0.78513308  0.77672931  0.74632586
   0.71577763  0.47901440  0.79858966
   0.71461761  0.27670305  0.24613576
   0.21511600  0.77678865  0.24669765
   0.28437678  0.47907681  0.29908908
   0.21531699  0.97906858  0.79899501
   0.28465717  0.27677977  0.74657190
   0.75141281  0.10649858  0.27795879
   0.75231540  0.64918726  0.76634529
   0.74837845  0.60650386  0.77781431
   0.74745709  0.14917796  0.26642558
   0.24812129  0.64925233  0.26672921
   0.25204404  0.60657368  0.27824577
   0.24777146  0.10655789  0.77813424
   0.25164873  0.14923978  0.76662637
   0.09190333  0.87798468  0.02343705
   0.90788674  0.87798408  0.52339625
   0.40792821  0.37798101  0.52331632
   0.59187488  0.37798024  0.02332614
   0.42993824  0.13686937  0.28164420
   0.91617073  0.56079115  0.29895533
   0.91639220  0.19488335  0.74460389
   0.58352387  0.06076684  0.79923653
   0.58337774  0.69486999  0.24460259
   0.56890056  0.61883300  0.26207382
   0.06977996  0.63688404  0.78184192
   0.06840656  0.11889076  0.26247210
   0.93053961  0.63680953  0.28129755
   0.08285751  0.19492294  0.24497923
   0.08418240  0.56086042  0.79946082
   0.41693998  0.69494273  0.74499278
   0.43143081  0.61891100  0.76249503
   0.56915125  0.13678553  0.78150743
   0.93087803  0.11885105  0.76216569
   0.41560401  0.06085118  0.29926646
   0.87233907  0.45581083  0.03789325
   0.12770470  0.30010037  0.50807063
   0.48853807  0.46883889  0.05521397
   0.01118845  0.78698085  0.49086492
   0.37233711  0.95580868  0.03773216
   0.48884748  0.28692248  0.99029556
   0.98885257  0.96888175  0.05592052
   0.62820848  0.80001818  0.50769490
   0.01073978  0.96888851  0.55574686
   0.51165945  0.46878279  0.55474991
   0.87160140  0.29999601  0.00747609
   0.62672882  0.95572882  0.53735208
   0.51052492  0.28689619  0.49009119
   0.12761189  0.45585781  0.53823703
   0.37187466  0.80007121  0.00783404
   0.98906595  0.78693489  0.99041107
   0.92737773  0.91918109  0.20102437
   0.81138246  0.91486562  0.35265107
   0.92747304  0.83669193  0.84570152
   0.57265400  0.41914996  0.70053517
   0.68791151  0.34095049  0.19347998
   0.18809725  0.84100758  0.19376917
   0.68825280  0.41488744  0.85262815
   0.57214304  0.33665400  0.34539225
   0.31157675  0.41491579  0.35275947
   0.07245760  0.83671279  0.34582433
   0.18806290  0.91491196  0.85271961
   0.31168499  0.34100808  0.69372173
   0.81177630  0.84098436  0.69373668
   0.07216873  0.91920842  0.70100810
   0.42746919  0.33668294  0.84552850
   0.42724527  0.41917580  0.20068668
   0.75065063  0.02197228  0.30672608
   0.75182326  0.73375610  0.73802023
   0.74909353  0.52196850  0.80644473
   0.74796563  0.23373587  0.23792921
   0.24852923  0.73382142  0.23844198
   0.25117488  0.52203938  0.30699143
   0.24863005  0.02202203  0.80684322
   0.25119205  0.23381576  0.73833404
   0.63136330  0.00251083  0.97458511
   0.89981406  0.04138216  0.61895166
   0.90006555  0.71433795  0.42500996
   0.60001537  0.54137205  0.11881286
   0.59960734  0.21430477  0.92507654
   0.36802311  0.75323923  0.57047804
   0.86845724  0.50252391  0.47428046
   0.86759101  0.25316324  0.56990293
   0.13162023  0.50260895  0.97500352
   0.10006303  0.71441322  0.92568179
   0.09964466  0.04141424  0.11926673
   0.39924090  0.21439315  0.42520798
   0.63236169  0.75316453  0.07012846
   0.36799279  0.00257714  0.47467177
   0.13192828  0.25323266  0.07056476
   0.40042850  0.54142889  0.61915617
 
 position of ions in cartesian coordinates  (Angst):
   7.14458168 31.07753997 -2.63733956
   5.67457105 30.67770136 -1.01162211
   7.14863777 25.31465064  2.58773991
   4.62589542 14.37106782  2.53189992
   6.08400826  9.81817791 -0.33571360
   2.16630753 26.12094481 -2.27361620
   6.09118944 13.97322505  4.16237309
   4.61729181  9.41864561  1.29316889
   1.75574969 14.38004972  0.93137656
   0.70129569 25.72131618 -0.64336958
   2.16960694 30.27457238  2.22253530
   1.75670316  9.41580179  2.90021057
   5.68247006 25.71417777  0.95847340
   0.70056056 30.67365181  0.59578958
   3.22416795  9.01480059  4.52791062
   3.22122896 14.77760190 -0.69905313
   5.38983397  0.90051805  0.64919485
   6.49876972  1.30799277  2.84523943
   6.50590720 22.48208013  0.97428500
   5.26746462 17.20321365  4.13698908
   5.25952110  6.58607316 -0.31826514
   2.45123852 23.29578378 -0.05829834
   6.37522321 16.79611658  1.94030245
   6.36681167  6.99311641  1.87913856
   1.47343490 17.20358148 -1.28924281
   1.34381672 22.88930873 -2.25565627
   1.34094879  0.90436360  6.07989261
   2.57738991  6.18345874  2.91616106
   5.40061550 22.88842091  3.17267080
   2.44838666  0.49736904  3.88289317
   1.47309143  6.59003655  5.11508111
   2.58329209 17.61022933  0.90643547
   5.40872934  2.35784400  0.40258705
   6.42563962  2.75993392  2.59441635
   6.43227708 21.02962527  1.22447007
   5.34095512 18.65514356  3.88648257
   5.33321048  5.13377606 -0.06768923
   2.43407482 21.83813907  0.18640474
   6.35672965 18.25353229  1.69412882
   6.34905916  5.53556196  2.12467040
   1.49341768 18.66089277 -1.53618489
   1.41806980 21.43691016 -2.00598742
   1.41374663  2.35628994  5.82899268
   2.50428714  4.73103872  3.16655432
   5.41757600 21.43077023  3.41745598
   2.42927209  1.95480791  3.63646933
   1.48954712  5.13226554  5.35952201
   2.51021972 19.06228445  0.65582250
   4.91366823  2.04538890  5.67900810
   6.90233609  3.65385822  3.54085711
   6.90424293 20.13544357  0.27556285
   4.86328194 20.35921012 -1.63312867
   4.86180634  3.42905997  5.45037575
   2.93423432 21.33972152  1.37460348
   6.85234420 18.75159683  0.50398743
   6.84957726  5.03741537  3.31278272
   0.99862798 18.34873022  3.74016994
   0.94672503 19.73236788  3.51179132
   0.93623466  4.06047253  0.30944108
   2.97657871  3.83680206  2.21791214
   4.91606809 21.74276078 -1.86079073
   2.92484062  2.45312175  2.44634760
   0.98864459  5.44406530  0.08150982
   2.98684516 19.95615804  1.60248605
   6.15195833 31.67417557 -1.86667707
   6.16077607 24.71680134  1.81161054
   5.61609226 14.96875449  3.30491858
   5.60574021  8.82093532  0.51762972
   1.68954497 25.12387575 -1.41926395
   2.23201540 15.37576076  0.07481993
   1.69237524 31.27079772  1.36713487
   2.23424327  8.41810909  3.75347113
   5.89390350  3.24633816  1.38390600
   5.90307191 20.54262825  2.43602050
   5.87209446 19.14182566  2.67582468
   5.86297939  4.64706529  1.14370454
   1.94808427 20.94984880 -0.79481555
   1.97874975 19.54915894 -0.55472460
   1.94453375  2.84318994  4.61814927
   1.97504309  4.24397490  4.37809975
   0.72318598 28.60391828 -3.25563148
   7.12350833 28.19837587 -0.02291125
   3.20103279 11.89820219  1.91704917
   4.64306774 12.30325782 -1.31613668
   3.37269534  4.23361221  1.28996567
   7.18733595 18.03952192 -0.24332141
   7.18865821  5.74952448  4.05838642
   4.57771185  1.33311075  4.93221385
   4.57756356 22.45479204 -1.11501263
   4.46383789 19.96177874 -0.70695895
   0.54999757 20.12929541  2.58415731
   0.53716346  3.66320123  1.23585777
   7.30021197 20.53208013 -0.65250922
   0.65068336  6.15607512  0.82768291
   0.66277222 17.63658476  2.99310616
   3.27285008 22.05175036  2.12047581
   3.38631777 19.55886970  2.52870188
   4.46517097  3.82574991  4.52257152
   7.30208684  3.25657703  4.46699975
   3.26009101  1.74108895  1.69892302
   6.84295045 14.82865743 -1.52404978
   1.00303670  9.37172086  2.12076843
   3.83289273 15.23952562 -1.46250068
   0.09050120 25.25838336  0.12012331
   2.92282987 31.12932352 -3.46527790
   3.83602863  8.55117233  5.29007142
   7.75816106 31.54048819 -3.39856351
   4.92978783 25.66948351  0.17819233
   0.08755590 31.13613177 -0.16624550
   4.01487221 14.83288711  1.76791260
   6.83670592  9.77362743 -1.11607497
   4.91864076 30.72173446 -0.23429203
   4.00540098  8.95564539  2.05564347
   1.00276737 14.42508369  1.71139500
   2.91874473 26.07639426 -3.05424692
   7.76054296 24.85162137  3.35030483
   7.27607187 29.80265350 -2.26737523
   6.36651477 29.53914982 -1.27011736
   7.27742406 26.59103173  2.22148078
   4.49329993 13.09665453  2.90321078
   5.39639241 10.95813176 -0.07217914
   1.47774468 27.26036362 -2.01072545
   5.40011409 12.83439048  3.90321574
   4.48861457 10.69501484  0.92685172
   2.44523811 13.24055925  0.67085423
   0.57097734 26.99718680 -1.01077729
   1.47851993 29.13572126  1.96351732
   2.44632527 10.55481433  3.16246502
   6.36984207 26.85416704  1.22218833
   0.56938981 29.39878274  0.96584745
   3.35459291 10.29074094  4.16086211
   3.35223183 13.50261662 -0.32907300
   5.88773483  0.46740667  1.89794506
   5.89940374 23.32258881  1.92467642
   5.87751161 16.36270913  3.18901332
   5.86715921  7.42680788  0.63129484
   1.95147540 23.72978647 -1.30591630
   1.97174200 16.76998433 -0.04079439
   1.95107654  0.06399350  5.13184787
   1.97165313  7.02414162  3.86693962
   4.95297990 -0.70819459  6.29214768
   7.05806244  0.84710168  3.84155863
   7.06160018 22.94312104 -0.02405972
   4.70747580 17.55257100 -1.33275118
   4.70442833  6.23657931  5.15011352
   2.88913292 24.09370041  0.76577716
   6.81319137 15.99791433  1.11653013
   6.80584805  7.79108404  2.70254801
   1.03489083 15.59527036  4.35427767
   0.78789836 22.54022974  3.21341153
   0.78176836  1.25344079  0.61048546
   3.13233219  6.64462237  1.91747213
   4.96167337 24.49659970 -2.46946758
   2.88674864 -0.30080520  3.05931936
   1.03547420  8.19832928 -0.52644522
   3.14277682 17.14906453  1.90250483
 


--------------------------------------------------------------------------------------------------------


 k-point  1 :   0.0000 0.0000 0.0000  plane waves:   54327
 k-point  2 :   0.3333-0.0000-0.0000  plane waves:   54246
 k-point  3 :  -0.0000-0.0000 0.2500  plane waves:   54356
 k-point  4 :   0.3333 0.0000 0.2500  plane waves:   54341
 k-point  5 :  -0.3333-0.0000 0.2500  plane waves:   54345
 k-point  6 :  -0.0000-0.0000 0.5000  plane waves:   54440
 k-point  7 :   0.3333-0.0000 0.5000  plane waves:   54366

 maximum and minimum number of plane-waves per node :     13634    13525

 maximum number of plane-waves:     54440
 maximum index in each direction: 
   IXMAX=   15   IYMAX=   65   IZMAX=   13
   IXMIN=  -15   IYMIN=  -65   IZMIN=  -13


 real space projection operators:
  total allocation   :      11996.30 KBytes
  max/ min on nodes  :       3003.82       2986.35


 parallel 3D FFT for wavefunctions:
    minimum data exchange during FFTs selected (reduces bandwidth)
 parallel 3D FFT for charge:
    minimum data exchange during FFTs selected (reduces bandwidth)


 total amount of memory used by VASP MPI-rank0    89830. kBytes
=======================================================================

   base      :      30000. kBytes
   nonlr-proj:       6112. kBytes
   fftplans  :       5036. kBytes
   grid      :       9100. kBytes
   one-center:        606. kBytes
   wavefun   :      38976. kBytes
 
     INWAV:  cpu time    0.0002: real time    0.0002
 Broyden mixing: mesh for mixing (old mesh)
   NGX = 31   NGY =131   NGZ = 27
  (NGX  = 96   NGY  =400   NGZ  = 80)
  gives a total of 109647 points

 initial charge density was supplied:
 charge density of overlapping atoms calculated
 number of electron     616.0000000 magnetization 
 keeping initial charge density in first step


--------------------------------------------------------------------------------------------------------


 Maximum index for non-local projection operator          522
 Maximum index for augmentation-charges          274 (set IRDMAX)


--------------------------------------------------------------------------------------------------------


 First call to EWALD:  gamma=   0.151
 Maximum number of real-space cells 4x 1x 5
 Maximum number of reciprocal cells 2x 7x 2

    FEWALD:  cpu time    0.0149: real time    0.0150


--------------------------------------- Iteration      1(   1)  ---------------------------------------


    POTLOK:  cpu time    0.1018: real time    0.1333
    SETDIJ:  cpu time    0.0317: real time    0.0325
    EDDIAG:  cpu time    3.1629: real time    3.2421
  RMM-DIIS:  cpu time    4.0166: real time    4.0215
    ORTHCH:  cpu time    0.7595: real time    0.7604
       DOS:  cpu time    0.0042: real time    0.0051
    --------------------------------------------
      LOOP:  cpu time    8.0768: real time    8.1950

 eigenvalue-minimisations  :  2800
 total energy-change (2. order) : 0.5688231E+04  (-0.2797152E+05)
 number of electron     616.0000000 magnetization 
 augmentation part      616.0000000 magnetization 

 Free energy of the ion-electron system (eV)
  ---------------------------------------------------
  alpha Z        PSCENC =      1186.16615293
  Ewald energy   TEWEN  =    -13011.68566906
  -Hartree energ DENC   =    -17437.61571121
  -exchange      EXHF   =         0.00000000
  -V(xc)+E(xc)   XCENC  =      2284.27991839
  PAW double counting   =     25034.14638475   -25847.60581054
  entropy T*S    EENTRO =        -0.04047466
  eigenvalues    EBANDS =      1046.90638076
  atomic energy  EATOM  =     32433.67991533
  Solvation  Ediel_sol  =         0.00000000
  ---------------------------------------------------
  free energy    TOTEN  =      5688.23108668 eV

  energy without entropy =     5688.27156134  energy(sigma->0) =     5688.25132401


--------------------------------------------------------------------------------------------------------




--------------------------------------- Iteration      1(   2)  ---------------------------------------


    EDDIAG:  cpu time    3.0702: real time    3.0738
  RMM-DIIS:  cpu time    3.9674: real time    3.9716
    ORTHCH:  cpu time    0.7509: real time    0.7518
       DOS:  cpu time    0.0039: real time    0.0039
    --------------------------------------------
      LOOP:  cpu time    7.7924: real time    7.8011

 eigenvalue-minimisations  :  2800
 total energy-change (2. order) :-0.3791465E+04  (-0.6684803E+04)
 number of electron     616.0000000 magnetization 
 augmentation part      616.0000000 magnetization 

 Free energy of the ion-electron system (eV)
  ---------------------------------------------------
  alpha Z        PSCENC =      1186.16615293
  Ewald energy   TEWEN  =    -13011.68566906
  -Hartree energ DENC   =    -17437.61571121
  -exchange      EXHF   =         0.00000000
  -V(xc)+E(xc)   XCENC  =      2284.27991839
  PAW double counting   =     25034.14638475   -25847.60581054
  entropy T*S    EENTRO =        -0.02684618
  eigenvalues    EBANDS =     -2744.57251275
  atomic energy  EATOM  =     32433.67991533
  Solvation  Ediel_sol  =         0.00000000
  ---------------------------------------------------
  free energy    TOTEN  =      1896.76582166 eV

  energy without entropy =     1896.79266783  energy(sigma->0) =     1896.77924474


--------------------------------------------------------------------------------------------------------




--------------------------------------- Iteration      1(   3)  ---------------------------------------


    EDDIAG:  cpu time    3.0558: real time    3.0610
  RMM-DIIS:  cpu time    3.9687: real time    3.9727
    ORTHCH:  cpu time    0.7557: real time    0.7568
       DOS:  cpu time    0.0036: real time    0.0036
    --------------------------------------------
      LOOP:  cpu time    7.7839: real time    7.7942

 eigenvalue-minimisations  :  2800
 total energy-change (2. order) :-0.1985166E+04  (-0.2258521E+04)
 number of electron     616.0000000 magnetization 
 augmentation part      616.0000000 magnetization 

 Free energy of the ion-electron system (eV)
  ---------------------------------------------------
  alpha Z        PSCENC =      1186.16615293
  Ewald energy   TEWEN  =    -13011.68566906
  -Hartree energ DENC   =    -17437.61571121
  -exchange      EXHF   =         0.00000000
  -V(xc)+E(xc)   XCENC  =      2284.27991839
  PAW double counting   =     25034.14638475   -25847.60581054
  entropy T*S    EENTRO =        -0.03657085
  eigenvalues    EBANDS =     -4729.72858469
  atomic energy  EATOM  =     32433.67991533
  Solvation  Ediel_sol  =         0.00000000
  ---------------------------------------------------
  free energy    TOTEN  =       -88.39997496 eV

  energy without entropy =      -88.36340410  energy(sigma->0) =      -88.38168953


--------------------------------------------------------------------------------------------------------




--------------------------------------- Iteration      1(   4)  ---------------------------------------


    EDDIAG:  cpu time    3.0505: real time    3.0541
  RMM-DIIS:  cpu time    3.9665: real time    3.9713
    ORTHCH:  cpu time    0.7541: real time    0.7551
       DOS:  cpu time    0.0036: real time    0.0036
    --------------------------------------------
      LOOP:  cpu time    7.7748: real time    7.7842

 eigenvalue-minimisations  :  2800
 total energy-change (2. order) :-0.7544392E+03  (-0.7118669E+03)
 number of electron     616.0000000 magnetization 
 augmentation part      616.0000000 magnetization 

 Free energy of the ion-electron system (eV)
  ---------------------------------------------------
  alpha Z        PSCENC =      1186.16615293
  Ewald energy   TEWEN  =    -13011.68566906
  -Hartree energ DENC   =    -17437.61571121
  -exchange      EXHF   =         0.00000000
  -V(xc)+E(xc)   XCENC  =      2284.27991839
  PAW double counting   =     25034.14638475   -25847.60581054
  entropy T*S    EENTRO =        -0.02684776
  eigenvalues    EBANDS =     -5484.17752918
  atomic energy  EATOM  =     32433.67991533
  Solvation  Ediel_sol  =         0.00000000
  ---------------------------------------------------
  free energy    TOTEN  =      -842.83919635 eV

  energy without entropy =     -842.81234859  energy(sigma->0) =     -842.82577247


--------------------------------------------------------------------------------------------------------




--------------------------------------- Iteration      1(   5)  ---------------------------------------


    EDDIAG:  cpu time    3.0988: real time    3.1034
  RMM-DIIS:  cpu time    3.9706: real time    3.9754
    ORTHCH:  cpu time    0.7519: real time    0.7520
       DOS:  cpu time    0.0035: real time    0.0035
    --------------------------------------------
      LOOP:  cpu time    7.8249: real time    7.8343

 eigenvalue-minimisations  :  2800
 total energy-change (2. order) :-0.2542692E+03  (-0.2228878E+03)
 number of electron     616.0000000 magnetization 
 augmentation part      616.0000000 magnetization 

 Free energy of the ion-electron system (eV)
  ---------------------------------------------------
  alpha Z        PSCENC =      1186.16615293
  Ewald energy   TEWEN  =    -13011.68566906
  -Hartree energ DENC   =    -17437.61571121
  -exchange      EXHF   =         0.00000000
  -V(xc)+E(xc)   XCENC  =      2284.27991839
  PAW double counting   =     25034.14638475   -25847.60581054
  entropy T*S    EENTRO =        -0.00432297
  eigenvalues    EBANDS =     -5738.46925731
  atomic energy  EATOM  =     32433.67991533
  Solvation  Ediel_sol  =         0.00000000
  ---------------------------------------------------
  free energy    TOTEN  =     -1097.10839970 eV

  energy without entropy =    -1097.10407673  energy(sigma->0) =    -1097.10623822


--------------------------------------------------------------------------------------------------------




--------------------------------------- Iteration      1(   6)  ---------------------------------------


    EDDIAG:  cpu time    3.0535: real time    3.0582
  RMM-DIIS:  cpu time    3.9697: real time    3.9737
    ORTHCH:  cpu time    0.7550: real time    0.7560
       DOS:  cpu time    0.0014: real time    0.0014
    --------------------------------------------
      LOOP:  cpu time    7.7795: real time    7.7893

 eigenvalue-minimisations  :  2800
 total energy-change (2. order) :-0.8288738E+02  (-0.7328247E+02)
 number of electron     616.0000000 magnetization 
 augmentation part      616.0000000 magnetization 

 Free energy of the ion-electron system (eV)
  ---------------------------------------------------
  alpha Z        PSCENC =      1186.16615293
  Ewald energy   TEWEN  =    -13011.68566906
  -Hartree energ DENC   =    -17437.61571121
  -exchange      EXHF   =         0.00000000
  -V(xc)+E(xc)   XCENC  =      2284.27991839
  PAW double counting   =     25034.14638475   -25847.60581054
  entropy T*S    EENTRO =        -0.00000000
  eigenvalues    EBANDS =     -5821.36096203
  atomic energy  EATOM  =     32433.67991533
  Solvation  Ediel_sol  =         0.00000000
  ---------------------------------------------------
  free energy    TOTEN  =     -1179.99578145 eV

  energy without entropy =    -1179.99578145  energy(sigma->0) =    -1179.99578145


--------------------------------------------------------------------------------------------------------




--------------------------------------- Iteration      1(   7)  ---------------------------------------


    EDDIAG:  cpu time    3.0511: real time    3.0550
  RMM-DIIS:  cpu time    3.9680: real time    3.9727
    ORTHCH:  cpu time    0.7536: real time    0.7545
       DOS:  cpu time    0.0015: real time    0.0015
    --------------------------------------------
      LOOP:  cpu time    7.7741: real time    7.7837

 eigenvalue-minimisations  :  2800
 total energy-change (2. order) :-0.3027245E+02  (-0.2684180E+02)
 number of electron     616.0000000 magnetization 
 augmentation part      616.0000000 magnetization 

 Free energy of the ion-electron system (eV)
  ---------------------------------------------------
  alpha Z        PSCENC =      1186.16615293
  Ewald energy   TEWEN  =    -13011.68566906
  -Hartree energ DENC   =    -17437.61571121
  -exchange      EXHF   =         0.00000000
  -V(xc)+E(xc)   XCENC  =      2284.27991839
  PAW double counting   =     25034.14638475   -25847.60581054
  entropy T*S    EENTRO =        -0.00000000
  eigenvalues    EBANDS =     -5851.63341431
  atomic energy  EATOM  =     32433.67991533
  Solvation  Ediel_sol  =         0.00000000
  ---------------------------------------------------
  free energy    TOTEN  =     -1210.26823372 eV

  energy without entropy =    -1210.26823372  energy(sigma->0) =    -1210.26823372


--------------------------------------------------------------------------------------------------------




--------------------------------------- Iteration      1(   8)  ---------------------------------------


    EDDIAG:  cpu time    3.0474: real time    3.0511
  RMM-DIIS:  cpu time    3.9662: real time    3.9713
    ORTHCH:  cpu time    0.7512: real time    0.7513
       DOS:  cpu time    0.0015: real time    0.0015
    --------------------------------------------
      LOOP:  cpu time    7.7663: real time    7.7752

 eigenvalue-minimisations  :  2800
 total energy-change (2. order) :-0.1133255E+02  (-0.1001253E+02)
 number of electron     616.0000000 magnetization 
 augmentation part      616.0000000 magnetization 

 Free energy of the ion-electron system (eV)
  ---------------------------------------------------
  alpha Z        PSCENC =      1186.16615293
  Ewald energy   TEWEN  =    -13011.68566906
  -Hartree energ DENC   =    -17437.61571121
  -exchange      EXHF   =         0.00000000
  -V(xc)+E(xc)   XCENC  =      2284.27991839
  PAW double counting   =     25034.14638475   -25847.60581054
  entropy T*S    EENTRO =        -0.00000000
  eigenvalues    EBANDS =     -5862.96596021
  atomic energy  EATOM  =     32433.67991533
  Solvation  Ediel_sol  =         0.00000000
  ---------------------------------------------------
  free energy    TOTEN  =     -1221.60077962 eV

[...]
   -.162E+02 -.420E+02 -.594E+02   -.882E-01 0.576E+02 0.691E+02   0.164E+02 -.156E+02 -.978E+01   -.589E-03 0.175E-02 0.406E-03
   0.266E+03 0.119E+03 -.136E+02   -.273E+03 -.141E+03 0.232E+02   0.739E+01 0.213E+02 -.963E+01   -.785E-03 -.221E-02 0.481E-03
   -.166E+02 -.420E+02 -.593E+02   0.287E+00 0.576E+02 0.691E+02   0.164E+02 -.156E+02 -.978E+01   -.581E-03 0.175E-02 0.406E-03
   -.266E+03 0.120E+03 -.133E+02   0.273E+03 -.141E+03 0.229E+02   -.740E+01 0.213E+02 -.961E+01   0.782E-03 -.219E-02 0.493E-03
   0.266E+03 -.119E+03 0.131E+02   -.273E+03 0.140E+03 -.226E+02   0.740E+01 -.214E+02 0.956E+01   -.786E-03 0.220E-02 -.487E-03
   0.266E+03 -.119E+03 0.130E+02   -.273E+03 0.140E+03 -.225E+02   0.742E+01 -.214E+02 0.955E+01   -.789E-03 0.221E-02 -.472E-03
   -.159E+02 0.424E+02 0.587E+02   -.462E+00 -.580E+02 -.684E+02   0.164E+02 0.156E+02 0.967E+01   -.591E-03 -.174E-02 -.405E-03
   0.161E+02 -.421E+02 -.592E+02   0.295E+00 0.576E+02 0.689E+02   -.164E+02 -.156E+02 -.975E+01   0.586E-03 0.174E-02 0.416E-03
   0.168E+02 0.426E+02 0.592E+02   -.455E+00 -.582E+02 -.689E+02   -.164E+02 0.156E+02 0.972E+01   0.594E-03 -.176E-02 -.412E-03
   0.798E+02 0.116E+03 -.129E+02   -.851E+02 -.116E+03 0.153E+02   0.526E+01 0.104E+00 -.238E+01   0.657E-04 -.295E-03 -.214E-03
   0.795E+02 -.116E+03 0.130E+02   -.846E+02 0.116E+03 -.154E+02   0.519E+01 -.115E+00 0.235E+01   0.622E-04 0.302E-03 0.203E-03
   -.797E+02 0.116E+03 -.128E+02   0.850E+02 -.116E+03 0.152E+02   -.525E+01 0.103E+00 -.237E+01   -.570E-04 -.312E-03 -.234E-03
   -.795E+02 -.116E+03 0.130E+02   0.847E+02 0.116E+03 -.153E+02   -.519E+01 -.110E+00 0.236E+01   -.655E-04 0.301E-03 0.199E-03
   -.798E+02 -.116E+03 0.130E+02   0.849E+02 0.116E+03 -.154E+02   -.519E+01 -.113E+00 0.236E+01   -.605E-04 0.318E-03 0.213E-03
   0.795E+02 0.116E+03 -.129E+02   -.848E+02 -.116E+03 0.153E+02   0.525E+01 0.101E+00 -.238E+01   0.438E-04 -.324E-03 -.238E-03
   -.797E+02 0.116E+03 -.128E+02   0.849E+02 -.116E+03 0.152E+02   -.526E+01 0.101E+00 -.237E+01   -.579E-04 -.281E-03 -.217E-03
   0.797E+02 -.116E+03 0.129E+02   -.849E+02 0.116E+03 -.152E+02   0.519E+01 -.120E+00 0.234E+01   0.493E-04 0.308E-03 0.221E-03
   0.117E+03 0.315E+03 0.201E+03   -.136E+03 -.351E+03 -.237E+03   0.190E+02 0.358E+02 0.367E+02   0.341E-03 -.812E-03 0.874E-03
   -.606E+02 0.168E+03 -.170E+03   0.846E+02 -.188E+03 0.213E+03   -.240E+02 0.204E+02 -.431E+02   -.580E-03 -.555E-03 -.136E-02
   -.592E+02 -.168E+03 0.170E+03   0.831E+02 0.188E+03 -.213E+03   -.239E+02 -.204E+02 0.432E+02   -.577E-03 0.560E-03 0.137E-02
   0.606E+02 0.168E+03 -.170E+03   -.846E+02 -.188E+03 0.213E+03   0.240E+02 0.204E+02 -.431E+02   0.567E-03 -.584E-03 -.134E-02
   0.594E+02 -.168E+03 0.170E+03   -.833E+02 0.188E+03 -.213E+03   0.239E+02 -.204E+02 0.432E+02   0.578E-03 0.571E-03 0.137E-02
   -.118E+03 -.315E+03 -.201E+03   0.137E+03 0.351E+03 0.238E+03   -.190E+02 -.357E+02 -.367E+02   -.335E-03 0.831E-03 -.871E-03
   -.117E+03 0.315E+03 0.201E+03   0.136E+03 -.351E+03 -.237E+03   -.190E+02 0.357E+02 0.367E+02   -.333E-03 -.838E-03 0.864E-03
   -.118E+03 -.316E+03 -.201E+03   0.137E+03 0.351E+03 0.238E+03   -.191E+02 -.357E+02 -.367E+02   -.330E-03 0.835E-03 -.852E-03
   0.117E+03 0.315E+03 0.201E+03   -.136E+03 -.351E+03 -.237E+03   0.191E+02 0.357E+02 0.367E+02   0.342E-03 -.846E-03 0.887E-03
   0.596E+02 -.168E+03 0.170E+03   -.835E+02 0.188E+03 -.213E+03   0.239E+02 -.204E+02 0.431E+02   0.568E-03 0.571E-03 0.135E-02
   0.604E+02 0.168E+03 -.170E+03   -.843E+02 -.188E+03 0.213E+03   0.240E+02 0.204E+02 -.431E+02   0.583E-03 -.544E-03 -.136E-02
   -.594E+02 -.168E+03 0.170E+03   0.832E+02 0.189E+03 -.213E+03   -.238E+02 -.204E+02 0.432E+02   -.574E-03 0.584E-03 0.136E-02
   0.118E+03 -.315E+03 -.201E+03   -.137E+03 0.351E+03 0.238E+03   0.190E+02 -.357E+02 -.367E+02   0.335E-03 0.820E-03 -.880E-03
   -.117E+03 0.315E+03 0.201E+03   0.136E+03 -.351E+03 -.237E+03   -.191E+02 0.357E+02 0.367E+02   -.342E-03 -.803E-03 0.887E-03
   0.118E+03 -.316E+03 -.201E+03   -.137E+03 0.351E+03 0.238E+03   0.190E+02 -.357E+02 -.368E+02   0.336E-03 0.843E-03 -.869E-03
   -.605E+02 0.168E+03 -.170E+03   0.845E+02 -.188E+03 0.213E+03   -.240E+02 0.204E+02 -.431E+02   -.567E-03 -.593E-03 -.134E-02
 -----------------------------------------------------------------------------------------------
   -.273E-01 0.879E-01 0.458E+00   0.102E-11 0.256E-12 0.369E-12   0.363E-01 -.769E-02 -.462E+00   -.725E-04 0.290E-04 -.251E-04
 
 
 POSITION                                       TOTAL-FORCE (eV/Angst)
 -----------------------------------------------------------------------------------
      7.14458     31.07754     -2.63734         0.000896     -0.000777     -0.000903
      5.67457     30.67770     -1.01162        -0.003819      0.000033      0.001575
      7.14864     25.31465      2.58774         0.002330      0.001945     -0.001166
      4.62590     14.37107      2.53190        -0.000279      0.000801      0.000720
      6.08401      9.81818     -0.33571         0.000576      0.001709      0.000013
      2.16631     26.12094     -2.27362         0.002768     -0.001230     -0.001958
      6.09119     13.97323      4.16237         0.003116      0.001831      0.000426
      4.61729      9.41865      1.29317         0.002263      0.003538     -0.002631
      1.75575     14.38005      0.93138        -0.002828      0.001161     -0.001035
      0.70130     25.72132     -0.64337        -0.000690     -0.001106     -0.000205
      2.16961     30.27457      2.22254         0.004083      0.000624      0.000920
      1.75670      9.41580      2.90021        -0.000761     -0.001584      0.000356
      5.68247     25.71418      0.95847        -0.000808      0.000076      0.000553
      0.70056     30.67365      0.59579        -0.003004      0.000626     -0.001493
      3.22417      9.01480      4.52791        -0.000405     -0.000979     -0.000231
      3.22123     14.77760     -0.69905         0.001469     -0.001425      0.000140
      5.38983      0.90052      0.64919         0.002838      0.000960      0.002438
      6.49877      1.30799      2.84524         0.001117      0.001905     -0.002249
      6.50591     22.48208      0.97428         0.001177     -0.002559      0.002132
      5.26746     17.20321      4.13699        -0.001321     -0.000159     -0.000533
      5.25952      6.58607     -0.31827         0.000415     -0.001849      0.003564
      2.45124     23.29578     -0.05830        -0.002757     -0.000114     -0.001975
      6.37522     16.79612      1.94030        -0.000649      0.000351      0.001782
      6.36681      6.99312      1.87914        -0.001250     -0.001060     -0.003653
      1.47343     17.20358     -1.28924         0.003837      0.006368      0.004313
      1.34382     22.88931     -2.25566        -0.000432     -0.000856      0.001673
      1.34095      0.90436      6.07989         0.000003      0.000193     -0.002602
      2.57739      6.18346      2.91616         0.001874      0.000670      0.001328
      5.40062     22.88842      3.17267         0.001397      0.000075     -0.001931
      2.44839      0.49737      3.88289        -0.002116      0.002728      0.002815
      1.47309      6.59004      5.11508         0.002332      0.000426     -0.001373
      2.58329     17.61023      0.90644         0.000448      0.003533     -0.004038
      5.40873      2.35784      0.40259        -0.001740      0.000374     -0.001850
      6.42564      2.75993      2.59442        -0.002683     -0.006422     -0.002863
      6.43228     21.02963      1.22447        -0.001358      0.003918      0.002251
      5.34096     18.65514      3.88648         0.001801     -0.005779     -0.003427
      5.33321      5.13378     -0.06769         0.001413      0.004185      0.002600
      2.43407     21.83814      0.18640         0.002819     -0.000964      0.002254
      6.35673     18.25353      1.69413         0.000329     -0.002798     -0.001123
      6.34906      5.53556      2.12467         0.000366      0.000918     -0.000113
      1.49342     18.66089     -1.53618        -0.002888      0.000640     -0.001727
      1.41807     21.43691     -2.00599         0.000296     -0.000209      0.000719
      1.41375      2.35629      5.82899         0.000345     -0.000533     -0.001815
      2.50429      4.73104      3.16655        -0.001896      0.002009      0.002139
      5.41758     21.43077      3.41746        -0.000031      0.002654      0.000649
      2.42927      1.95481      3.63647         0.001918      0.001078     -0.001301
      1.48955      5.13227      5.35952        -0.002590     -0.001654      0.001409
      2.51022     19.06228      0.65582        -0.002495     -0.001486     -0.001853
      4.91367      2.04539      5.67901         0.002141      0.001563      0.003790
      6.90234      3.65386      3.54086         0.000199      0.003032      0.002068
      6.90424     20.13544      0.27556         0.000442     -0.005592      0.002637
      4.86328     20.35921     -1.63313        -0.000034      0.001515      0.003242
      4.86181      3.42906      5.45038        -0.001614     -0.002201     -0.000720
      2.93423     21.33972      1.37460        -0.002896      0.000488     -0.003455
      6.85234     18.75160      0.50399        -0.002506      0.007458      0.004290
      6.84958      5.03742      3.31278        -0.000780     -0.000714      0.000011
      0.99863     18.34873      3.74017         0.000119     -0.003472      0.004456
      0.94673     19.73237      3.51179        -0.001906      0.002216      0.000710
      0.93623      4.06047      0.30944         0.000413      0.003047     -0.000322
      2.97658      3.83680      2.21791         0.002322     -0.000334     -0.000857
      4.91607     21.74276     -1.86079         0.002660     -0.001219     -0.004352
      2.92484      2.45312      2.44635         0.000136     -0.001994      0.001991
      0.98864      5.44407      0.08151         0.002972      0.000521     -0.003543
      2.98685     19.95616      1.60249        -0.001243     -0.000980     -0.000621
      6.15196     31.67418     -1.86668         0.004393      0.003850     -0.000877
      6.16078     24.71680      1.81161         0.000758     -0.003862      0.001466
      5.61609     14.96875      3.30492        -0.003673      0.001563     -0.000579
      5.60574      8.82094      0.51763        -0.002491     -0.002216      0.001284
      1.68954     25.12388     -1.41926        -0.002497     -0.003424      0.000632
      2.23202     15.37576      0.07482         0.002024      0.003864     -0.000421
      1.69238     31.27080      1.36713        -0.002611      0.002620     -0.001028
      2.23424      8.41811      3.75347         0.003365      0.000612      0.000094
      5.89390      3.24634      1.38391         0.004229      0.005965      0.003556
      5.90307     20.54263      2.43602         0.002777     -0.003056     -0.006268
      5.87209     19.14183      2.67582        -0.002871      0.006578      0.005993
      5.86298      4.64707      1.14370        -0.003028      0.000064     -0.003959
      1.94808     20.94985     -0.79482        -0.002973      0.003301     -0.002488
      1.97875     19.54916     -0.55472         0.001825     -0.000899      0.001107
      1.94453      2.84319      4.61815        -0.002197     -0.000102      0.002573
      1.97504      4.24397      4.37810         0.003502      0.001751     -0.003568
      0.72319     28.60392     -3.25563         0.000755     -0.000362     -0.003720
      7.12351     28.19838     -0.02291        -0.000008     -0.002411     -0.001546
      3.20103     11.89820      1.91705        -0.002519      0.000580      0.000952
      4.64307     12.30326     -1.31614        -0.000826     -0.000119      0.001194
      3.37270      4.23361      1.28997         0.001557     -0.001398      0.001890
      7.18734     18.03952     -0.24332         0.002706     -0.003114     -0.002593
      7.18866      5.74952      4.05839        -0.000800      0.000603      0.000290
      4.57771      1.33311      4.93221        -0.001859     -0.001393     -0.001182
      4.57756     22.45479     -1.11501        -0.000671      0.002392      0.003252
      4.46384     19.96178     -0.70696         0.000812      0.000766      0.000121
      0.55000     20.12930      2.58416        -0.001729     -0.001319      0.001401
      0.53716      3.66320      1.23586         0.000562      0.000928     -0.000073
      7.30021     20.53208     -0.65251         0.001321     -0.000304      0.001963
      0.65068      6.15608      0.82768         0.000094      0.000438      0.000476
      0.66277     17.63658      2.99311        -0.002889     -0.000100      0.000686
      3.27285     22.05175      2.12048        -0.000689      0.000437      0.000953
      3.38632     19.55887      2.52870        -0.000598      0.000771      0.000462
      4.46517      3.82575      4.52257        -0.000554     -0.001340      0.002374
      7.30209      3.25658      4.46700        -0.001332      0.001658     -0.000587
      3.26009      1.74109      1.69892         0.002661     -0.000147      0.001006
      6.84295     14.82866     -1.52405         0.001165     -0.000272     -0.001343
      1.00304      9.37172      2.12077        -0.001569      0.000763      0.001091
      3.83289     15.23953     -1.46250         0.000300     -0.001331      0.002828
      0.09050     25.25838      0.12012        -0.000880      0.000937     -0.003942
      2.92283     31.12932     -3.46528         0.001684      0.000096     -0.002205
      3.83603      8.55117      5.29007         0.001435      0.000409     -0.002536
      7.75816     31.54049     -3.39856         0.000471     -0.000287      0.002506
      4.92979     25.66948      0.17819        -0.002684      0.000446      0.000379
      0.08756     31.13613     -0.16625        -0.001237     -0.000844      0.003830
      4.01487     14.83289      1.76791        -0.000401     -0.000910      0.003831
      6.83671      9.77363     -1.11607         0.001487     -0.000011      0.002535
      4.91864     30.72173     -0.23429         0.001939     -0.000673     -0.001709
      4.00540      8.95565      2.05564        -0.003020     -0.000387     -0.000623
      1.00277     14.42508      1.71139        -0.001191     -0.000213     -0.001686
      2.91874     26.07639     -3.05425         0.001044      0.000086      0.001684
      7.76054     24.85162      3.35030         0.000588      0.000923     -0.002396
      7.27607     29.80265     -2.26738         0.002149      0.000435      0.000103
      6.36651     29.53915     -1.27012         0.000493      0.001776     -0.002484
      7.27742     26.59103      2.22148         0.001888      0.000087     -0.000123
      4.49330     13.09665      2.90321        -0.001903     -0.001534     -0.000058
      5.39639     10.95813     -0.07218         0.001184     -0.001895      0.001770
      1.47774     27.26036     -2.01073         0.000340     -0.000799      0.001760
      5.40011     12.83439      3.90322        -0.000807      0.001477     -0.002048
      4.48861     10.69501      0.92685        -0.002101     -0.001836     -0.000795
      2.44524     13.24056      0.67085         0.002159      0.001336     -0.001283
      0.57098     26.99719     -1.01078        -0.002627      0.000534     -0.002031
      1.47852     29.13572      1.96352        -0.000972      0.001736     -0.001876
      2.44633     10.55481      3.16247        -0.000567     -0.001778      0.001094
      6.36984     26.85417      1.22219         0.000527     -0.002384      0.001349
      0.56939     29.39878      0.96585        -0.001435     -0.001729     -0.000886
      3.35459     10.29074      4.16086         0.002101      0.001224     -0.001466
      3.35223     13.50262     -0.32907         0.001513     -0.000516     -0.000721
      5.88773      0.46741      1.89795        -0.001073     -0.001670      0.001187
      5.89940     23.32259      1.92468        -0.000356     -0.000017      0.000176
      5.87751     16.36271      3.18901         0.001375     -0.002720      0.000423
      5.86716      7.42681      0.63129        -0.000676     -0.000597     -0.000394
      1.95148     23.72979     -1.30592         0.001259      0.001364     -0.001190
      1.97174     16.76998     -0.04079        -0.001128     -0.000864      0.000241
      1.95108      0.06399      5.13185        -0.000296     -0.001582     -0.000751
      1.97165      7.02414      3.86694        -0.000994     -0.002054     -0.000322
      4.95298     -0.70819      6.29215        -0.000631     -0.002384     -0.000073
      7.05806      0.84710      3.84156         0.001865     -0.000191      0.001555
      7.06160     22.94312     -0.02406         0.000772     -0.000054      0.002602
      4.70748     17.55257     -1.33275        -0.000251      0.000827     -0.000678
      4.70443      6.23658      5.15011        -0.000374     -0.000295      0.002574
      2.88913     24.09370      0.76578         0.001088     -0.001201     -0.001589
      6.81319     15.99791      1.11653        -0.000380     -0.001156      0.001486
      6.80585      7.79108      2.70255        -0.000316      0.000435      0.000150
      1.03489     15.59527      4.35428        -0.003466     -0.005519     -0.005282
      0.78790     22.54023      3.21341        -0.000435     -0.001241      0.001035
      0.78177      1.25344      0.61049        -0.002120      0.000776     -0.001088
      3.13233      6.64462      1.91747         0.001833     -0.001368      0.001753
      4.96167     24.49660     -2.46947        -0.001329      0.000185     -0.000302
      2.88675     -0.30081      3.05932         0.001340     -0.001705     -0.000302
      1.03547      8.19833     -0.52645        -0.001751     -0.000890     -0.003535
      3.14278     17.14906      1.90250         0.002594     -0.001238      0.000895
 -----------------------------------------------------------------------------------
    total drift:                                0.008887      0.080238     -0.003838


--------------------------------------------------------------------------------------------------------



  FREE ENERGIE OF THE ION-ELECTRON SYSTEM (eV)
  ---------------------------------------------------
  free  energy   TOTEN  =     -1162.38352538 eV

  energy  without entropy=    -1162.38352538  energy(sigma->0) =    -1162.38352538
 


--------------------------------------------------------------------------------------------------------


    POTLOK:  cpu time    0.1222: real time    0.1222


--------------------------------------------------------------------------------------------------------




--------------------------------------------------------------------------------------------------------


  
 reached required accuracy - stopping structural energy minimisation
 writing wavefunctions
     LOOP+:  cpu time  321.6854: real time  328.4081
    4ORBIT:  cpu time    0.0000: real time    0.0000

 total amount of memory used by VASP MPI-rank0    89830. kBytes
=======================================================================

   base      :      30000. kBytes
   nonlr-proj:       6112. kBytes
   fftplans  :       5036. kBytes
   grid      :       9100. kBytes
   one-center:        606. kBytes
   wavefun   :      38976. kBytes
 
  
  
 General timing and accounting informations for this job:
 ========================================================
  
                  Total CPU time used (sec):      375.888
                            User time (sec):      343.981
                          System time (sec):       31.907
                         Elapsed time (sec):      383.795
  
                   Maximum memory used (kb):     1064004.
                   Average memory used (kb):           0.
  
                          Minor page faults:       359394
                          Major page faults:            9
                 Voluntary context switches:         9984
