       N       E                     dE             d eps       ncg     rms          rms(c)
DAV:   1     0.575163194649E+04    0.57516E+04   -0.26055E+05  3072   0.140E+03
DAV:   2    -0.154261709327E+03   -0.59059E+04   -0.56746E+04  4480   0.316E+02
DAV:   3    -0.125618203299E+04   -0.11019E+04   -0.10946E+04  3744   0.144E+02
DAV:   4    -0.129668238731E+04   -0.40500E+02   -0.40164E+02  3968   0.371E+01
DAV:   5    -0.129790513788E+04   -0.12228E+01   -0.12185E+01  4480   0.578E+00    0.864E+01
DAV:   6    -0.150584192941E+04   -0.20794E+03   -0.24969E+03  4032   0.851E+01    0.218E+02
DAV:   7    -0.140563675187E+04    0.10021E+03   -0.21247E+02  3552   0.296E+01    0.138E+02
DAV:   8    -0.115644540486E+04    0.24919E+03   -0.27818E+02  4320   0.964E+01    0.342E+01
DAV:   9    -0.116895080219E+04   -0.12505E+02   -0.92714E+01  3872   0.148E+01    0.244E+01
DAV:  10    -0.116601505800E+04    0.29357E+01   -0.29129E+01  4256   0.131E+01    0.247E+01
DAV:  11    -0.117188224265E+04   -0.58672E+01   -0.10130E+02  4352   0.188E+01    0.400E+01
DAV:  12    -0.116559502836E+04    0.62872E+01   -0.27097E+01  4064   0.172E+01    0.885E+00
DAV:  13    -0.116664070414E+04   -0.10457E+01   -0.14866E+00  4416   0.447E+00    0.604E+00
DAV:  14    -0.116703206245E+04   -0.39136E+00   -0.40600E-01  4512   0.297E+00    0.419E+00
DAV:  15    -0.116734310962E+04   -0.31105E+00   -0.15939E-01  4416   0.178E+00    0.253E+00
DAV:  16    -0.116755906062E+04   -0.21595E+00   -0.87038E-02  4480   0.148E+00    0.146E+00
DAV:  17    -0.116774145083E+04   -0.18239E+00   -0.60895E-02  4320   0.102E+00    0.925E-01
DAV:  18    -0.116791113950E+04   -0.16969E+00   -0.48675E-02  4416   0.822E-01    0.634E-01
DAV:  19    -0.116811440378E+04   -0.20326E+00   -0.55584E-02  4448   0.899E-01    0.462E-01
DAV:  20    -0.116837028884E+04   -0.25589E+00   -0.87820E-02  4064   0.923E-01    0.751E-01
DAV:  21    -0.116843805762E+04   -0.67769E-01   -0.31362E-02  4160   0.507E-01    0.412E-01
DAV:  22    -0.116857701654E+04   -0.13896E+00   -0.12817E-02  3712   0.245E-01    0.277E-01
DAV:  23    -0.116868938389E+04   -0.11237E+00   -0.75265E-03  4032   0.209E-01    0.208E-01
DAV:  24    -0.116876724740E+04   -0.77864E-01   -0.50671E-03  3904   0.151E-01    0.131E-01
DAV:  25    -0.116880713154E+04   -0.39884E-01   -0.48273E-03  3904   0.172E-01    0.819E-02
DAV:  26    -0.116881588517E+04   -0.87536E-02   -0.11136E-03  4064   0.601E-02    0.696E-02
DAV:  27    -0.116882112470E+04   -0.52395E-02   -0.31644E-04  4160   0.491E-02    0.433E-02
DAV:  28    -0.116882494118E+04   -0.38165E-02   -0.31725E-04  3872   0.383E-02    0.284E-02
DAV:  29    -0.116882661142E+04   -0.16702E-02   -0.12804E-04  3776   0.220E-02    0.244E-02
DAV:  30    -0.116882780179E+04   -0.11904E-02   -0.99492E-05  3680   0.176E-02    0.149E-02
DAV:  31    -0.116882830471E+04   -0.50292E-03   -0.26814E-05  3552   0.974E-03    0.102E-02
DAV:  32    -0.116882861007E+04   -0.30536E-03   -0.10922E-05  3232   0.753E-03    0.570E-03
DAV:  33    -0.116882889507E+04   -0.28501E-03   -0.15280E-05  3168   0.779E-03    0.397E-03
DAV:  34    -0.116882902387E+04   -0.12880E-03   -0.62133E-06  3200   0.457E-03    0.309E-03
DAV:  35    -0.116882907195E+04   -0.48077E-04   -0.16687E-06  2592   0.282E-03    0.212E-03
DAV:  36    -0.116882909172E+04   -0.19775E-04   -0.62510E-07  2496   0.145E-03    0.118E-03
DAV:  37    -0.116882910261E+04   -0.10890E-04   -0.39244E-07  2176   0.134E-03    0.814E-04
DAV:  38    -0.116882910971E+04   -0.70961E-05   -0.30425E-07  2496   0.999E-04    0.715E-04
DAV:  39    -0.116882911249E+04   -0.27860E-05   -0.14820E-07  2368   0.687E-04    0.537E-04
DAV:  40    -0.116882911365E+04   -0.11545E-05   -0.63105E-08  2240   0.469E-04    0.390E-04
DAV:  41    -0.116882911487E+04   -0.12185E-05   -0.43730E-08  2272   0.410E-04    0.220E-04
DAV:  42    -0.116882911604E+04   -0.11746E-05   -0.26497E-08  2176   0.307E-04    0.156E-04
DAV:  43    -0.116882911669E+04   -0.64980E-06   -0.14255E-08  2112   0.231E-04
   1 F= -.11783436E+04 E0= -.11783420E+04  d E =-.117834E+04  mag=    -0.0003
