 vasp.6.0.8 29Jun18 (build Mar 14 2019 11:44:20) complex                        
  
 executed on             LinuxIFC date 2020.12.30  15:08:17
 running  128 mpi-ranks, with    1 threads/rank
 distrk:  each k-point on  128 cores,    1 groups
 distr:  one band on NCORES_PER_BAND=   4 cores,   32 groups


--------------------------------------------------------------------------------------------------------


 INCAR:
 POTCAR:    PAW_PBE C 08Apr2002                   
 POTCAR:    PAW_PBE Co 02Aug2007                  
 POTCAR:    PAW_PBE H 15Jun2001                   
 POTCAR:    PAW_PBE N 08Apr2002                   
 POTCAR:    PAW_PBE O 08Apr2002                   
 POTCAR:    PAW_PBE C 08Apr2002                   
   VRHFIN =C: s2p2                                                              
   LEXCH  = PE                                                                  
   EATOM  =   147.1560 eV,   10.8157 Ry                                         
                                                                                
   TITEL  = PAW_PBE C 08Apr2002                                                 
   LULTRA =        F    use ultrasoft PP ?                                      
   IUNSCR =        1    unscreen: 0-lin 1-nonlin 2-no                           
   RPACOR =    1.200    partial core radius                                     
   POMASS =   12.011; ZVAL   =    4.000    mass and valenz                      
   RCORE  =    1.500    outmost cutoff radius                                   
   RWIGS  =    1.630; RWIGS  =    0.863    wigner-seitz radius (au A)           
   ENMAX  =  400.000; ENMIN  =  300.000 eV                                      
   ICORE  =        2    local potential                                         
   LCOR   =        T    correct aug charges                                     
   LPAW   =        T    paw PP                                                  
   EAUG   =  644.873                                                            
   DEXC   =    0.000                                                            
   RMAX   =    1.529    core radius for proj-oper                               
   RAUG   =    1.300    factor for augmentation sphere                          
   RDEP   =    1.501    radius for radial grids                                 
   RDEPT  =    1.300    core radius for aug-charge                              
                                                                                
   Atomic configuration                                                         
    4 entries                                                                   
     n  l   j            E        occ.                                          
     1  0  0.50      -273.3789   2.0000                                         
     2  0  0.50       -13.7508   2.0000                                         
     2  1  0.50        -5.2854   2.0000                                         
     3  2  1.50        -5.4423   0.0000                                         
   Description                                                                  
     l       E           TYP  RCUT    TYP  RCUT                                 
     0    -13.7508458     23  1.200                                             
     0     -8.2022199     23  1.200                                             
     1     -5.2854383     23  1.500                                             
     1     34.0145650     23  1.500                                             
     2     -5.4423304      7  1.500                                             
  local pseudopotential read in
  partial core-charges read in
  partial kinetic energy density read in
  atomic valenz-charges read in
  non local Contribution for L=           0  read in
    real space projection operators read in
  non local Contribution for L=           0  read in
    real space projection operators read in
  non local Contribution for L=           1  read in
    real space projection operators read in
  non local Contribution for L=           1  read in
    real space projection operators read in
    PAW grid and wavefunctions read in
 
   number of l-projection  operators is LMAX  =           4
   number of lm-projection operators is LMMAX =           8
 
 POTCAR:    PAW_PBE Co 02Aug2007                  
   VRHFIN =Co: d8 s1                                                            
   LEXCH  = PE                                                                  
   EATOM  =   813.3670 eV,   59.7808 Ry                                         
                                                                                
   TITEL  = PAW_PBE Co 02Aug2007                                                
   LULTRA =        F    use ultrasoft PP ?                                      
   IUNSCR =        1    unscreen: 0-lin 1-nonlin 2-no                           
   RPACOR =    2.000    partial core radius                                     
   POMASS =   58.933; ZVAL   =    9.000    mass and valenz                      
   RCORE  =    2.300    outmost cutoff radius                                   
   RWIGS  =    2.460; RWIGS  =    1.302    wigner-seitz radius (au A)           
   ENMAX  =  267.968; ENMIN  =  200.976 eV                                      
   RCLOC  =    1.203    cutoff for local pot                                    
   LCOR   =        T    correct aug charges                                     
   LPAW   =        T    paw PP                                                  
   EAUG   =  477.818                                                            
   DEXC   =    0.000                                                            
   RMAX   =    2.360    core radius for proj-oper                               
   RAUG   =    1.300    factor for augmentation sphere                          
   RDEP   =    2.393    radius for radial grids                                 
   RDEPT  =    1.864    core radius for aug-charge                              
                                                                                
   Atomic configuration                                                         
    9 entries                                                                   
     n  l   j            E        occ.                                          
     1  0  0.50     -7587.6674   2.0000                                         
     2  0  0.50      -893.6084   2.0000                                         
     2  1  1.50      -764.5805   6.0000                                         
     3  0  0.50       -97.5973   2.0000                                         
     3  1  1.50       -60.9648   6.0000                                         
     3  2  2.50        -4.2382   8.0000                                         
     4  0  0.50        -4.3746   1.0000                                         
     4  1  1.50        -4.0817   0.0000                                         
     4  3  2.50        -1.3606   0.0000                                         
   Description                                                                  
     l       E           TYP  RCUT    TYP  RCUT                                 
     2     -4.2382362     23  2.300                                             
     2     -5.5988188     23  2.300                                             
     0     -4.3745797     23  2.300                                             
     0      5.7660125     23  2.300                                             
     1     -2.7211652     23  2.300                                             
     1     16.9860234     23  2.300                                             
  local pseudopotential read in
  partial core-charges read in
  partial kinetic energy density read in
  atomic valenz-charges read in
  non local Contribution for L=           2  read in
    real space projection operators read in
  non local Contribution for L=           2  read in
    real space projection operators read in
  non local Contribution for L=           0  read in
    real space projection operators read in
  non local Contribution for L=           0  read in
    real space projection operators read in
  non local Contribution for L=           1  read in
    real space projection operators read in
  non local Contribution for L=           1  read in
    real space projection operators read in
    PAW grid and wavefunctions read in
 
   number of l-projection  operators is LMAX  =           6
   number of lm-projection operators is LMMAX =          18
 
 POTCAR:    PAW_PBE H 15Jun2001                   
   VRHFIN =H: ultrasoft test                                                    
   LEXCH  = PE                                                                  
   EATOM  =    12.4884 eV,    0.9179 Ry                                         
                                                                                
   TITEL  = PAW_PBE H 15Jun2001                                                 
   LULTRA =        F    use ultrasoft PP ?                                      
   IUNSCR =        0    unscreen: 0-lin 1-nonlin 2-no                           
   RPACOR =    0.000    partial core radius                                     
   POMASS =    1.000; ZVAL   =    1.000    mass and valenz                      
   RCORE  =    1.100    outmost cutoff radius                                   
   RWIGS  =    0.700; RWIGS  =    0.370    wigner-seitz radius (au A)           
   ENMAX  =  250.000; ENMIN  =  200.000 eV                                      
   RCLOC  =    0.701    cutoff for local pot                                    
   LCOR   =        T    correct aug charges                                     
   LPAW   =        T    paw PP                                                  
   EAUG   =  400.000                                                            
   RMAX   =    1.123    core radius for proj-oper                               
   RAUG   =    1.200    factor for augmentation sphere                          
   RDEP   =    1.112    radius for radial grids                                 
   RDEPT  =    0.926    core radius for aug-charge                              
                                                                                
   Atomic configuration                                                         
    2 entries                                                                   
     n  l   j            E        occ.                                          
     1  0  0.50        -6.4927   1.0000                                         
     2  1  0.50        -3.4015   0.0000                                         
   Description                                                                  
     l       E           TYP  RCUT    TYP  RCUT                                 
     0     -6.4927494     23  1.100                                             
     0      6.8029130     23  1.100                                             
     1     -4.0817478     23  1.100                                             
  local pseudopotential read in
  atomic valenz-charges read in
  non local Contribution for L=           0  read in
    real space projection operators read in
  non local Contribution for L=           0  read in
    real space projection operators read in
  non local Contribution for L=           1  read in
    real space projection operators read in
    PAW grid and wavefunctions read in
 
   number of l-projection  operators is LMAX  =           3
   number of lm-projection operators is LMMAX =           5
 
 POTCAR:    PAW_PBE N 08Apr2002                   
   VRHFIN =N: s2p3                                                              
   LEXCH  = PE                                                                  
   EATOM  =   264.5486 eV,   19.4438 Ry                                         
                                                                                
   TITEL  = PAW_PBE N 08Apr2002                                                 
   LULTRA =        F    use ultrasoft PP ?                                      
   IUNSCR =        1    unscreen: 0-lin 1-nonlin 2-no                           
   RPACOR =    1.200    partial core radius                                     
   POMASS =   14.001; ZVAL   =    5.000    mass and valenz                      
   RCORE  =    1.500    outmost cutoff radius                                   
   RWIGS  =    1.400; RWIGS  =    0.741    wigner-seitz radius (au A)           
   ENMAX  =  400.000; ENMIN  =  300.000 eV                                      
   ICORE  =        2    local potential                                         
   LCOR   =        T    correct aug charges                                     
   LPAW   =        T    paw PP                                                  
   EAUG   =  627.112                                                            
   DEXC   =    0.000                                                            
   RMAX   =    1.529    core radius for proj-oper                               
   RAUG   =    1.300    factor for augmentation sphere                          
   RDEP   =    1.514    radius for radial grids                                 
   RDEPT  =    1.338    core radius for aug-charge                              
                                                                                
   Atomic configuration                                                         
    4 entries                                                                   
     n  l   j            E        occ.                                          
     1  0  0.50      -384.7179   2.0000                                         
     2  0  0.50       -18.5828   2.0000                                         
     2  1  0.50        -7.0898   3.0000                                         
     3  2  1.50        -6.8029   0.0000                                         
   Description                                                                  
     l       E           TYP  RCUT    TYP  RCUT                                 
     0    -18.5828119     23  1.200                                             
     0    -13.5018863     23  1.200                                             
     1     -7.0897853     23  1.500                                             
     1      9.5240782     23  1.500                                             
     2     -6.8029130      7  1.500                                             
  local pseudopotential read in
  partial core-charges read in
  partial kinetic energy density read in
  atomic valenz-charges read in
  non local Contribution for L=           0  read in
    real space projection operators read in
  non local Contribution for L=           0  read in
    real space projection operators read in
  non local Contribution for L=           1  read in
    real space projection operators read in
  non local Contribution for L=           1  read in
    real space projection operators read in
    PAW grid and wavefunctions read in
 
   number of l-projection  operators is LMAX  =           4
   number of lm-projection operators is LMMAX =           8
 
 POTCAR:    PAW_PBE O 08Apr2002                   
   VRHFIN =O: s2p4                                                              
   LEXCH  = PE                                                                  
   EATOM  =   432.3788 eV,   31.7789 Ry                                         
                                                                                
   TITEL  = PAW_PBE O 08Apr2002                                                 
   LULTRA =        F    use ultrasoft PP ?                                      
   IUNSCR =        1    unscreen: 0-lin 1-nonlin 2-no                           
   RPACOR =    1.200    partial core radius                                     
   POMASS =   16.000; ZVAL   =    6.000    mass and valenz                      
   RCORE  =    1.520    outmost cutoff radius                                   
   RWIGS  =    1.550; RWIGS  =    0.820    wigner-seitz radius (au A)           
   ENMAX  =  400.000; ENMIN  =  300.000 eV                                      
   ICORE  =        2    local potential                                         
   LCOR   =        T    correct aug charges                                     
   LPAW   =        T    paw PP                                                  
   EAUG   =  605.392                                                            
   DEXC   =    0.000                                                            
   RMAX   =    1.553    core radius for proj-oper                               
   RAUG   =    1.300    factor for augmentation sphere                          
   RDEP   =    1.550    radius for radial grids                                 
   RDEPT  =    1.329    core radius for aug-charge                              
                                                                                
   Atomic configuration                                                         
    4 entries                                                                   
     n  l   j            E        occ.                                          
     1  0  0.50      -514.6923   2.0000                                         
     2  0  0.50       -23.9615   2.0000                                         
     2  1  0.50        -9.0305   4.0000                                         
     3  2  1.50        -9.5241   0.0000                                         
   Description                                                                  
     l       E           TYP  RCUT    TYP  RCUT                                 
     0    -23.9615318     23  1.200                                             
     0     -9.5240782     23  1.200                                             
     1     -9.0304911     23  1.520                                             
     1      8.1634956     23  1.520                                             
     2     -9.5240782      7  1.500                                             
  local pseudopotential read in
  partial core-charges read in
  partial kinetic energy density read in
  kinetic energy density of atom read in
  atomic valenz-charges read in
  non local Contribution for L=           0  read in
    real space projection operators read in
  non local Contribution for L=           0  read in
    real space projection operators read in
  non local Contribution for L=           1  read in
    real space projection operators read in
  non local Contribution for L=           1  read in
    real space projection operators read in
    PAW grid and wavefunctions read in
 
   number of l-projection  operators is LMAX  =           4
   number of lm-projection operators is LMMAX =           8
 
 Optimization of the real space projectors (new method)

 maximal supplied QI-value         = 25.13
 optimisation between [QCUT,QGAM] = [ 12.32, 24.88] = [ 42.47,173.37] Ry 
 Optimized for a Real-space Cutoff    1.06 Angstroem

   l    n(q)    QCUT    max X(q) W(low)/X(q) W(high)/X(q)  e(spline) 
   0      8    12.315   115.676    0.34E-03    0.18E-03    0.23E-06
   0      8    12.315    87.132    0.34E-03    0.18E-03    0.22E-06
   1      7    12.315     4.429    0.45E-03    0.12E-03    0.18E-06
   1      7    12.315     2.733    0.35E-03    0.97E-04    0.15E-06
 Optimization of the real space projectors (new method)

 maximal supplied QI-value         = 16.25
 optimisation between [QCUT,QGAM] = [ 12.51, 25.03] = [ 43.85,175.40] Ry 
 Optimized for a Real-space Cutoff    1.31 Angstroem

   l    n(q)    QCUT    max X(q) W(low)/X(q) W(high)/X(q)  e(spline) 
   2      9    12.514    65.824    0.30E-03    0.46E-03    0.43E-06
   2      9    12.514    61.429    0.31E-03    0.46E-03    0.44E-06
   0     10    12.514    56.174    0.90E-04    0.33E-03    0.30E-06
   0     10    12.514    31.263    0.81E-04    0.30E-03    0.28E-06
   1      9    12.514    19.828    0.38E-03    0.65E-04    0.24E-06
   1      9    12.514    15.139    0.32E-03    0.60E-04    0.20E-06
 Optimization of the real space projectors (new method)

 maximal supplied QI-value         = 34.20
 optimisation between [QCUT,QGAM] = [ 12.31, 24.97] = [ 42.46,174.58] Ry 
 Optimized for a Real-space Cutoff    1.00 Angstroem

   l    n(q)    QCUT    max X(q) W(low)/X(q) W(high)/X(q)  e(spline) 
   0      7    12.313    19.460    0.14E-03    0.42E-03    0.16E-06
   0      7    12.313    12.209    0.12E-03    0.40E-03    0.16E-06
   1      7    12.313     4.655    0.33E-03    0.59E-03    0.89E-07
 Optimization of the real space projectors (new method)

 maximal supplied QI-value         = 25.13
 optimisation between [QCUT,QGAM] = [ 12.32, 24.88] = [ 42.47,173.37] Ry 
 Optimized for a Real-space Cutoff    1.20 Angstroem

   l    n(q)    QCUT    max X(q) W(low)/X(q) W(high)/X(q)  e(spline) 
   0      9    12.315    79.467    0.14E-03    0.22E-04    0.37E-06
   0      9    12.315    66.151    0.14E-03    0.23E-04    0.36E-06
   1      8    12.315    22.077    0.30E-03    0.54E-03    0.45E-06
   1      8    12.315    15.894    0.30E-03    0.55E-03    0.45E-06
 Optimization of the real space projectors (new method)

 maximal supplied QI-value         = 24.76
 optimisation between [QCUT,QGAM] = [ 12.38, 25.00] = [ 42.90,175.06] Ry 
 Optimized for a Real-space Cutoff    1.13 Angstroem

   l    n(q)    QCUT    max X(q) W(low)/X(q) W(high)/X(q)  e(spline) 
   0      8    12.378    20.381    0.16E-03    0.54E-05    0.27E-06
   0      8    12.378    15.268    0.17E-03    0.61E-05    0.29E-06
   1      8    12.378     5.964    0.38E-03    0.23E-03    0.28E-06
   1      8    12.378     5.382    0.33E-03    0.20E-03    0.25E-06
  PAW_PBE C 08Apr2002                   :
 energy of atom  1       EATOM= -147.1560
 kinetic energy error for atom=    0.0057 (will be added to EATOM!!)
  PAW_PBE Co 02Aug2007                  :
 energy of atom  2       EATOM= -813.3670
 kinetic energy error for atom=    0.0018 (will be added to EATOM!!)
  PAW_PBE H 15Jun2001                   :
 energy of atom  3       EATOM=  -12.4884
 kinetic energy error for atom=    0.0004 (will be added to EATOM!!)
  PAW_PBE N 08Apr2002                   :
 energy of atom  4       EATOM= -264.5486
 kinetic energy error for atom=    0.0103 (will be added to EATOM!!)
  PAW_PBE O 08Apr2002                   :
 energy of atom  5       EATOM= -432.3788
 kinetic energy error for atom=    0.0168 (will be added to EATOM!!)
 
 
 POSCAR: CoH_exp12
  positions in direct lattice
  velocities in cartesian coordinates
 exchange correlation table for  LEXCH =        8
   RHO(1)=    0.500       N(1)  =     2000
   RHO(2)=  100.500       N(2)  =     4000
 


--------------------------------------------------------------------------------------------------------


 ion  position               nearest neighbor table
   1  0.910  0.969  0.128- 107 1.08 117 1.35  65 1.40
   2  0.925  0.977  0.423- 112 1.08 118 1.35  65 1.40
   3  0.911  0.812  0.926- 116 1.08 119 1.35  66 1.40
   4  0.590  0.468  0.628- 110 1.08 120 1.35  67 1.40
   5  0.575  0.303  0.130- 111 1.08 121 1.35  68 1.40
   6  0.075  0.803  0.130- 115 1.08 122 1.35  69 1.40
   7  0.575  0.477  0.923- 101 1.08 123 1.35  67 1.40
   8  0.589  0.312  0.425- 113 1.08 124 1.35  68 1.41
   9  0.425  0.477  0.422- 114 1.08 125 1.35  70 1.40
  10  0.089  0.812  0.425- 104 1.08 126 1.35  69 1.41
  11  0.075  0.977  0.923- 105 1.08 127 1.35  71 1.40
  12  0.425  0.303  0.630- 102 1.08 128 1.35  72 1.40
  13  0.925  0.803  0.631- 108 1.08 129 1.35  66 1.40
  14  0.090  0.968  0.628- 109 1.08 130 1.35  71 1.40
  15  0.411  0.312  0.925- 106 1.08 131 1.35  72 1.40
  16  0.410  0.468  0.128- 103 1.08 132 1.35  70 1.40
  17  0.819  0.041  0.434- 141 1.23 133 1.42  33 1.49
  18  0.847  0.074  0.119- 142 1.23 133 1.42  34 1.49
  19  0.847  0.706  0.935- 143 1.23 134 1.42  35 1.49
  20  0.653  0.574  0.619- 144 1.23 135 1.42  36 1.49
  21  0.653  0.206  0.435- 145 1.23 136 1.42  37 1.49
  22  0.180  0.740  0.119- 146 1.23 137 1.42  38 1.49
  23  0.681  0.540  0.934- 147 1.23 135 1.42  39 1.49
  24  0.680  0.240  0.119- 148 1.23 136 1.42  40 1.49
  25  0.319  0.540  0.433- 149 1.23 138 1.42  41 1.49
  26  0.153  0.706  0.435- 150 1.23 137 1.42  42 1.49
  27  0.153  0.074  0.618- 151 1.23 139 1.42  43 1.49
  28  0.347  0.206  0.934- 152 1.23 140 1.42  44 1.49
  29  0.820  0.739  0.620- 153 1.23 134 1.42  45 1.49
  30  0.181  0.040  0.933- 154 1.23 139 1.42  46 1.49
  31  0.320  0.239  0.619- 155 1.23 140 1.42  47 1.49
  32  0.346  0.574  0.117- 156 1.23 138 1.42  48 1.49
  33  0.777  0.084  0.431-  49 1.39  73 1.41  17 1.49
  34  0.804  0.116  0.122-  50 1.39  73 1.41  18 1.49
  35  0.804  0.664  0.931-  51 1.39  74 1.41  19 1.49
  36  0.696  0.616  0.622-  52 1.39  75 1.41  20 1.49
  37  0.696  0.164  0.431-  53 1.39  76 1.41  21 1.49
  38  0.222  0.697  0.122-  54 1.39  77 1.41  22 1.49
  39  0.723  0.583  0.931-  55 1.39  75 1.41  23 1.49
  40  0.722  0.197  0.122-  56 1.39  76 1.41  24 1.49
  41  0.276  0.583  0.430-  57 1.39  78 1.41  25 1.49
  42  0.195  0.664  0.431-  58 1.39  77 1.41  26 1.49
  43  0.196  0.116  0.622-  59 1.39  79 1.41  27 1.49
  44  0.304  0.164  0.931-  60 1.39  80 1.41  28 1.49
  45  0.778  0.697  0.622-  61 1.39  74 1.41  29 1.49
  46  0.223  0.083  0.931-  62 1.39  79 1.41  30 1.49
  47  0.278  0.197  0.622-  63 1.39  80 1.41  31 1.49
  48  0.303  0.616  0.121-  64 1.39  78 1.41  32 1.49
  49  0.743  0.088  0.582-  88 1.09  33 1.39  53 1.41
  50  0.796  0.152  0.971-  99 1.09  34 1.39  56 1.41
  51  0.797  0.628  0.082-  93 1.09  35 1.39  55 1.41
  52  0.704  0.652  0.471-  90 1.09  36 1.39  61 1.41
  53  0.703  0.128  0.582-  98 1.09  37 1.39  49 1.41
  54  0.256  0.692  0.971-  96 1.09  38 1.39  64 1.41
  55  0.757  0.588  0.082-  86 1.09  39 1.39  51 1.41
  56  0.756  0.192  0.971-  87 1.09  40 1.39  50 1.41
  57  0.243  0.588  0.581-  95 1.09  41 1.39  58 1.41
  58  0.203  0.628  0.581-  91 1.09  42 1.39  57 1.41
  59  0.204  0.152  0.471-  92 1.09  43 1.39  63 1.41
  60  0.297  0.128  0.081-  85 1.09  44 1.39  62 1.41
  61  0.744  0.692  0.471-  89 1.09  45 1.39  52 1.41
  62  0.257  0.088  0.081- 100 1.09  46 1.39  60 1.41
  63  0.244  0.192  0.471-  94 1.09  47 1.39  59 1.41
  64  0.296  0.652  0.970-  97 1.09  48 1.39  54 1.41
  65  0.893  0.998  0.276-   2 1.40   1 1.40 133 1.43
  66  0.894  0.783  0.778-  13 1.40   3 1.40 134 1.43
  67  0.607  0.497  0.775-   7 1.40   4 1.40 135 1.43
  68  0.606  0.283  0.278-   5 1.40   8 1.41 136 1.43
  69  0.106  0.783  0.278-   6 1.40  10 1.41 137 1.43
  70  0.393  0.497  0.275-   9 1.40  16 1.40 138 1.43
  71  0.107  0.997  0.775-  11 1.40  14 1.40 139 1.43
  72  0.393  0.283  0.777-  12 1.40  15 1.40 140 1.43
  73  0.770  0.120  0.277-  33 1.41  34 1.41  76 1.43
  74  0.771  0.660  0.777-  35 1.41  45 1.41  75 1.43
  75  0.730  0.620  0.776-  39 1.41  36 1.41  74 1.43
  76  0.729  0.160  0.277-  37 1.41  40 1.41  73 1.43
  77  0.229  0.660  0.276-  42 1.41  38 1.41  78 1.43
  78  0.270  0.619  0.276-  41 1.41  48 1.41  77 1.43
  79  0.230  0.120  0.776-  46 1.41  43 1.41  80 1.43
  80  0.271  0.160  0.776-  44 1.41  47 1.41  79 1.43
  81  0.996  0.891  0.027- 127 1.98 122 1.98 117 1.98 119 1.98
  82  0.004  0.891  0.527- 118 1.98 129 1.98 130 1.98 126 1.98
  83  0.504  0.391  0.526- 128 1.98 125 1.98 120 1.98 124 1.98
  84  0.496  0.390  0.026- 123 1.98 121 1.98 132 1.98 131 1.98
  85  0.323  0.131  0.199-  60 1.09
  86  0.751  0.559  0.199-  55 1.09
  87  0.750  0.220  0.853-  56 1.09
  88  0.749  0.060  0.700-  49 1.09
  89  0.750  0.720  0.353-  61 1.09
  90  0.678  0.648  0.353-  52 1.09
  91  0.176  0.631  0.699-  58 1.09
  92  0.177  0.148  0.353-  59 1.09
  93  0.823  0.631  0.200-  51 1.09
  94  0.250  0.220  0.353-  63 1.09
  95  0.249  0.559  0.699-  57 1.09
  96  0.250  0.720  0.853-  54 1.09
  97  0.322  0.648  0.852-  64 1.09
  98  0.677  0.132  0.700-  53 1.09
  99  0.822  0.149  0.853-  50 1.09
 100  0.251  0.059  0.199-  62 1.09
 101  0.575  0.488  0.063-   7 1.08
 102  0.425  0.293  0.489-  12 1.08
 103  0.397  0.471  0.987-  16 1.08
 104  0.102  0.809  0.566-  10 1.08
 105  0.075  0.988  0.063-  11 1.08
 106  0.397  0.309  0.066-  15 1.08
 107  0.897  0.972  0.987-   1 1.08
 108  0.925  0.793  0.490-  13 1.08
 109  0.103  0.971  0.487-  14 1.08
 110  0.603  0.471  0.487-   4 1.08
 111  0.575  0.293  0.990-   5 1.08
 112  0.925  0.988  0.564-   2 1.08
 113  0.602  0.309  0.566-   8 1.08
 114  0.424  0.488  0.563-   9 1.08
 115  0.075  0.793  0.990-   6 1.08
 116  0.897  0.809  0.066-   3 1.08
 117  0.950  0.934  0.184-   1 1.35 118 1.37  81 1.98
 118  0.959  0.939  0.367-   2 1.35 117 1.37  82 1.98
 119  0.950  0.847  0.869-   3 1.35 129 1.37  81 1.98
 120  0.550  0.433  0.684-   4 1.35 123 1.37  83 1.98
 121  0.541  0.342  0.187-   5 1.35 124 1.37  84 1.98
 122  0.041  0.842  0.187-   6 1.35 126 1.37  81 1.98
 123  0.541  0.439  0.866-   7 1.35 120 1.37  84 1.98
 124  0.550  0.347  0.369-   8 1.35 121 1.37  83 1.98
 125  0.459  0.439  0.366-   9 1.35 132 1.37  83 1.98
 126  0.050  0.847  0.369-  10 1.35 122 1.37  82 1.98
 127  0.041  0.939  0.866-  11 1.35 130 1.37  81 1.98
 128  0.459  0.342  0.686-  12 1.35 131 1.37  83 1.98
 129  0.959  0.842  0.687-  13 1.35 119 1.37  82 1.98
 130  0.051  0.933  0.684-  14 1.35 127 1.37  82 1.98
 131  0.450  0.347  0.869-  15 1.35 128 1.37  84 1.98
 132  0.449  0.433  0.184-  16 1.35 125 1.37  84 1.98
 133  0.852  0.038  0.276-  18 1.42  17 1.42  65 1.43
 134  0.853  0.742  0.778-  19 1.42  29 1.42  66 1.43
 135  0.648  0.538  0.776-  20 1.42  23 1.42  67 1.43
 136  0.647  0.242  0.277-  21 1.42  24 1.42  68 1.43
 137  0.147  0.742  0.277-  26 1.42  22 1.42  69 1.43
 138  0.352  0.538  0.275-  32 1.42  25 1.42  70 1.43
 139  0.148  0.038  0.776-  27 1.42  30 1.42  71 1.43
 140  0.353  0.242  0.777-  28 1.42  31 1.42  72 1.43
 141  0.825  0.009  0.567-  17 1.23
 142  0.877  0.071  0.986-  18 1.23
 143  0.877  0.710  0.068-  19 1.23
 144  0.623  0.570  0.486-  20 1.23
 145  0.623  0.210  0.568-  21 1.23
 146  0.174  0.772  0.987-  22 1.23
 147  0.675  0.508  0.066-  23 1.23
 148  0.674  0.271  0.986-  24 1.23
 149  0.325  0.508  0.566-  25 1.23
 150  0.123  0.710  0.568-  26 1.23
 151  0.124  0.070  0.486-  27 1.23
 152  0.377  0.210  0.067-  28 1.23
 153  0.826  0.771  0.487-  29 1.23
 154  0.175  0.008  0.066-  30 1.23
 155  0.326  0.272  0.486-  31 1.23
 156  0.376  0.570  0.984-  32 1.23
 

IMPORTANT INFORMATION: All symmetrisations will be switched off!
NOSYMM: (Re-)initialisation of all symmetry stuff for point group C_1.


----------------------------------------------------------------------------------------

                                     Primitive cell                                     

  volume of cell :    4485.7721

  direct lattice vectors                    reciprocal lattice vectors
    24.602050990 -0.000445762  0.001938149     0.040647018 -0.000000503 -0.000006333
     0.000618375 24.748842736  2.001271312     0.000000678  0.040351516  0.000672909
     0.001144846 -0.122693747  7.357423404    -0.000010892 -0.010975898  0.135734113

  length of vectors
    24.602051071 24.829625531  7.358446453     0.040647019  0.040357126  0.136177163

  position of ions in fractional coordinates (direct lattice)
     0.910102334  0.968508477  0.128232816
     0.924980434  0.977482395  0.422944501
     0.910504807  0.811975892  0.925602215
     0.589901265  0.468319545  0.627978144
     0.574592619  0.303230854  0.130372405
     0.074664157  0.803298041  0.130426487
     0.574994427  0.477323042  0.922666217
     0.589346570  0.312092079  0.425233106
     0.424690352  0.477314703  0.422203563
     0.089302494  0.811979180  0.425451469
     0.075039585  0.977350928  0.922607887
     0.425158384  0.303302361  0.630015812
     0.925267968  0.803213729  0.630681468
     0.090052833  0.968134006  0.628083330
     0.410535953  0.311896571  0.925113519
     0.409819992  0.468072957  0.127635251
     0.818976929  0.040659888  0.434029180
     0.846854570  0.074308462  0.118896841
     0.847360699  0.706050675  0.935096020
     0.653229860  0.574065449  0.618622069
     0.652659591  0.206313243  0.435006189
     0.180183223  0.739559490  0.119216213
     0.681075952  0.540356941  0.933688015
     0.680121909  0.239536654  0.119076638
     0.318614620  0.540281060  0.433125705
     0.152555899  0.706172079  0.434791121
     0.153309896  0.073938856  0.618331450
     0.347382565  0.206055157  0.934424728
     0.819781099  0.739457610  0.619508235
     0.181157504  0.040321112  0.933497367
     0.319688927  0.239490757  0.618985181
     0.346160766  0.573628926  0.117335267
     0.776743677  0.083523521  0.431112091
     0.803683363  0.116109457  0.122003674
     0.804436546  0.663990127  0.931421415
     0.696378778  0.615885194  0.621886519
     0.695572850  0.164260108  0.431389112
     0.222248578  0.696547995  0.121820931
     0.723288342  0.583234359  0.930906070
     0.722351315  0.196683655  0.122041766
     0.276368212  0.583127298  0.430307611
     0.195417694  0.664070030  0.431051051
     0.196395033  0.115810726  0.621583671
     0.304466595  0.163995742  0.930881974
     0.777646978  0.696508234  0.622191936
     0.223376179  0.083188943  0.930593701
     0.277564622  0.196531484  0.621778989
     0.303187552  0.615609625  0.120961026
     0.743210833  0.087972800  0.581725766
     0.796233407  0.152126371  0.971279186
     0.797131962  0.627794859  0.081763245
     0.703801695  0.651974003  0.471340963
     0.702854602  0.128095094  0.581800660
     0.255578467  0.691938605  0.970809576
     0.756782627  0.587673123  0.081557285
     0.755750704  0.192124096  0.971164850
     0.242924896  0.587652240  0.581110562
     0.202642172  0.627846627  0.581345180
     0.203733849  0.151925684  0.471048800
     0.297226360  0.127802212  0.081255112
     0.744247709  0.692000689  0.471344927
     0.256897163  0.087653297  0.081173204
     0.244125760  0.192009585  0.471023258
     0.295853168  0.651744405  0.970494494
     0.893020105  0.997521185  0.275752364
     0.893509438  0.782912806  0.778107456
     0.606993667  0.497322069  0.775470907
     0.606392960  0.283022623  0.277770639
     0.106405593  0.783001755  0.277844576
     0.392656028  0.497150739  0.274891685
     0.107099669  0.997223283  0.775403422
     0.393455061  0.282941390  0.777472690
     0.770064253  0.119807281  0.276628071
     0.770899441  0.660234401  0.776691426
     0.729982219  0.619543507  0.776498647
     0.729131289  0.160482788  0.276687961
     0.228927530  0.660245076  0.276254063
     0.269698323  0.619420015  0.275846604
     0.230014980  0.119503881  0.776154979
     0.270896890  0.160231396  0.776253615
     0.995658873  0.890518928  0.026667564
     0.004200124  0.890515374  0.526606353
     0.504142435  0.390538255  0.526377136
     0.495635483  0.390440574  0.026310489
     0.323498818  0.131392371  0.199106949
     0.750948875  0.559364824  0.199327941
     0.749729809  0.220239302  0.853015145
     0.749039701  0.059685992  0.699548646
     0.750208198  0.720192261  0.353349397
     0.677527538  0.648431761  0.353474531
     0.176371903  0.631455847  0.699234297
     0.177443471  0.148352628  0.353225028
     0.823383613  0.631347058  0.199663272
     0.250026137  0.220231542  0.353066414
     0.248758117  0.559402380  0.699029634
     0.249659931  0.720166934  0.852901150
     0.322076278  0.648110594  0.852491237
     0.676580727  0.131679251  0.699687471
     0.822491166  0.148526730  0.853341835
     0.251092882  0.059352608  0.198992937
     0.575191154  0.487822431  0.063300805
     0.424892284  0.292913685  0.489290591
     0.396587500  0.471040736  0.986920298
     0.102352234  0.808686486  0.566342235
     0.075184627  0.987976891  0.063101740
     0.397491534  0.308549870  0.066033011
     0.896883634  0.971618799  0.987497549
     0.925086915  0.792751034  0.490018827
     0.103358718  0.971112019  0.487423939
     0.603171044  0.471372700  0.487275344
     0.574771636  0.292740426  0.989740644
     0.924819467  0.988015735  0.563541859
     0.602463463  0.308900731  0.566048714
     0.424474560  0.487920572  0.562718656
     0.074894648  0.792888080  0.989732146
     0.897384400  0.808720162  0.066449233
     0.949523243  0.933514883  0.184435165
     0.958758342  0.939126281  0.366528109
     0.949679587  0.847240257  0.869156874
     0.550414310  0.433388930  0.684163035
     0.540955549  0.341725760  0.186644568
     0.041011495  0.841765742  0.186795011
     0.541166027  0.439015348  0.866245442
     0.550114181  0.347274918  0.368789730
     0.458591557  0.439023803  0.366076023
     0.050098459  0.847199544  0.369036088
     0.041212208  0.939018400  0.866376069
     0.458777138  0.341784638  0.686416789
     0.958844473  0.841754422  0.686954473
     0.050532494  0.933261878  0.684398505
     0.449698436  0.347170646  0.868698652
     0.449360708  0.433252896  0.184074157
     0.852142058  0.038276921  0.276175725
     0.852807163  0.741971014  0.777601481
     0.647892149  0.538046284  0.775895837
     0.647147488  0.242134012  0.277304137
     0.147144564  0.742093937  0.277315758
     0.351693302  0.537823355  0.275048393
     0.147995029  0.037954090  0.775693374
     0.352753744  0.242005849  0.776987301
     0.825254258  0.008632910  0.566523171
     0.876684778  0.070705299  0.986378693
     0.876849066  0.709928106  0.068295814
     0.623454393  0.570450946  0.486000656
     0.623222092  0.210280261  0.568332938
     0.173954140  0.771593373  0.986717959
     0.674820388  0.508248489  0.065985657
     0.673733749  0.271430583  0.986299929
     0.325011230  0.508319705  0.565716185
     0.123049446  0.710072256  0.567979059
     0.123557416  0.070247589  0.485701250
     0.376942118  0.209912654  0.067465226
     0.826045121  0.771499520  0.487046409
     0.174874397  0.008266888  0.065918474
     0.325928788  0.271521882  0.486473742
     0.375677208  0.569746434  0.984169325

  ion indices of the primitive-cell ions
   primitive index   ion index
                 1           1
                 2           2
                 3           3
                 4           4
                 5           5
                 6           6
                 7           7
                 8           8
                 9           9
                10          10
                11          11
                12          12
                13          13
                14          14
                15          15
                16          16
                17          17
                18          18
                19          19
                20          20
                21          21
                22          22
                23          23
                24          24
                25          25
                26          26
                27          27
                28          28
                29          29
                30          30
                31          31
                32          32
                33          33
                34          34
                35          35
                36          36
                37          37
                38          38
                39          39
                40          40
                41          41
                42          42
                43          43
                44          44
                45          45
                46          46
                47          47
                48          48
                49          49
                50          50
                51          51
                52          52
                53          53
                54          54
                55          55
                56          56
                57          57
                58          58
                59          59
                60          60
                61          61
                62          62
                63          63
                64          64
                65          65
                66          66
                67          67
                68          68
                69          69
                70          70
                71          71
                72          72
                73          73
                74          74
                75          75
                76          76
                77          77
                78          78
                79          79
                80          80
                81          81
                82          82
                83          83
                84          84
                85          85
                86          86
                87          87
                88          88
                89          89
                90          90
                91          91
                92          92
                93          93
                94          94
                95          95
                96          96
                97          97
                98          98
                99          99
               100         100
               101         101
               102         102
               103         103
               104         104
               105         105
               106         106
               107         107
               108         108
               109         109
               110         110
               111         111
               112         112
               113         113
               114         114
               115         115
               116         116
               117         117
               118         118
               119         119
               120         120
               121         121
               122         122
               123         123
               124         124
               125         125
               126         126
               127         127
               128         128
               129         129
               130         130
               131         131
               132         132
               133         133
               134         134
               135         135
               136         136
               137         137
               138         138
               139         139
               140         140
               141         141
               142         142
               143         143
               144         144
               145         145
               146         146
               147         147
               148         148
               149         149
               150         150
               151         151
               152         152
               153         153
               154         154
               155         155
               156         156

----------------------------------------------------------------------------------------

 
 

Automatic generation of k-mesh.
 generate k-points for:    1    1    3
Space group operators:
 irot       det(A)        alpha          n_x          n_y          n_z        tau_x        tau_y        tau_z
    1     1.000000     0.000000     1.000000     0.000000     0.000000     0.000000     0.000000     0.000000
 
 Subroutine IBZKPT returns following result:
 ===========================================
 
 Found      2 irreducible k-points:
 
 Following reciprocal coordinates:
            Coordinates               Weight
  0.000000  0.000000  0.000000      1.000000
 -0.000000  0.000000  0.333333      2.000000
 
 Following cartesian coordinates:
            Coordinates               Weight
  0.000000  0.000000  0.000000      1.000000
 -0.000004 -0.003659  0.045245      2.000000
 


--------------------------------------------------------------------------------------------------------




 Dimension of arrays:
   k-points           NKPTS =      2   k-points in BZ     NKDIM =      2   number of bands    NBANDS=    384
   number of dos      NEDOS =    301   number of ions     NIONS =    156
   non local maximal  LDIM  =      6   non local SUM 2l+1 LMDIM =     18
   total plane-waves  NPLWV = ******
   max r-space proj   IRMAX =   2300   max aug-charges    IRDMAX=   9694
   dimension x,y,z NGX =   150 NGY =  150 NGZ =   48
   dimension x,y,z NGXF=   300 NGYF=  300 NGZF=   96
   support grid    NGXF=   300 NGYF=  300 NGZF=   96
   ions per type =              80   4  32  24  16
   NGX,Y,Z   is equivalent  to a cutoff of  10.14, 10.04, 10.84 a.u.
   NGXF,Y,Z  is equivalent  to a cutoff of  20.27, 20.09, 21.69 a.u.

 SYSTEM =  flex_MOF                                
 POSCAR =  CoH_exp12                               

 Startparameter for this run:
   NWRITE =      2    write-flag & timer
   PREC   = normal    normal or accurate (medium, high low for compatibility)
   ISTART =      0    job   : 0-new  1-cont  2-samecut
   ICHARG =      2    charge: 1-file 2-atom 10-const
   ISPIN  =      2    spin polarized calculation?
   LNONCOLLINEAR =      F non collinear calculations
   LSORBIT =      F    spin-orbit coupling
   INIWAV =      1    electr: 0-lowe 1-rand  2-diag
   LASPH  =      F    aspherical Exc in radial PAW
   METAGGA=      F    non-selfconsistent MetaGGA calc.

 Electronic Relaxation 1
   ENCUT  =  600.0 eV  44.10 Ry    6.64 a.u.  49.14 49.59 14.70*2*pi/ulx,y,z
   ENINI  =  600.0     initial cutoff
   ENAUG  =  644.9 eV  augmentation charge cutoff
   NELM   =     80;   NELMIN=  8; NELMDL= -5     # of ELM steps 
   EDIFF  = 0.1E-05   stopping-criterion for ELM
   LREAL  =      T    real-space projection
   NLSPLINE    = F    spline interpolate recip. space projectors
   LCOMPAT=      F    compatible to vasp.4.4
   GGA_COMPAT  = T    GGA compatible to vasp.4.4-vasp.4.6
   LMAXPAW     = -100 max onsite density
   LMAXMIX     =    2 max onsite mixed and CHGCAR
   VOSKOWN=      0    Vosko Wilk Nusair interpolation
   ROPT   =   -0.00050  -0.00050  -0.00050  -0.00050
   ROPT   =   -0.00050
 Ionic relaxation
   EDIFFG = -.1E-01   stopping-criterion for IOM
   NSW    =    500    number of steps for IOM
   NBLOCK =      1;   KBLOCK =    500    inner block; outer block 
   IBRION =      2    ionic relax: 0-MD 1-quasi-New 2-CG
   NFREE  =      1    steps in history (QN), initial steepest desc. (CG)
   ISIF   =      4    stress and relaxation
   IWAVPR =     11    prediction:  0-non 1-charg 2-wave 3-comb
   ISYM   =      0    0-nonsym 1-usesym 2-fastsym
   LCORR  =      T    Harris-Foulkes like correction to forces

   POTIM  = 0.5000    time-step for ionic-motion
   TEIN   =    0.0    initial temperature
   TEBEG  =    0.0;   TEEND  =   0.0 temperature during run
   SMASS  =  -3.00    Nose mass-parameter (am)
   estimated Nose-frequenzy (Omega)   =  0.10E-29 period in steps = 0.13E+47 mass=  -0.138E-25a.u.
   SCALEE = 1.0000    scale energy and forces
   NPACO  =    256;   APACO  = 16.0  distance and # of slots for P.C.
   PSTRESS=    0.0 pullay stress

  Mass of Ions in am
   POMASS =  12.01 58.93  1.00 14.00 16.00
  Ionic Valenz
   ZVAL   =   4.00  9.00  1.00  5.00  6.00
  Atomic Wigner-Seitz radii
   RWIGS  =  -1.00 -1.00 -1.00 -1.00 -1.00
  virtual crystal weights 
   VCA    =   1.00  1.00  1.00  1.00  1.00
   NELECT =     604.0000    total number of electrons
   NUPDOWN=      -1.0000    fix difference up-down

 DOS related values:
   EMIN   =  10.00;   EMAX   =-10.00  energy-range for DOS
   EFERMI =   0.00
   ISMEAR =     0;   SIGMA  =   0.05  broadening in eV -4-tet -1-fermi 0-gaus

 Electronic relaxation 2 (details)
   IALGO  =     38    algorithm
   LDIAG  =      T    sub-space diagonalisation (order eigenvalues)
   LSUBROT=      F    optimize rotation matrix (better conditioning)
   TURBO    =      0    0=normal 1=particle mesh
   IRESTART =      0    0=no restart 2=restart with 2 vectors
   NREBOOT  =      0    no. of reboots
   NMIN     =      0    reboot dimension
   EREF     =   0.00    reference energy to select bands
   IMIX   =      4    mixing-type and parameters
     AMIX     =   0.40;   BMIX     =  1.00
     AMIX_MAG =   1.60;   BMIX_MAG =  1.00
     AMIN     =   0.10
     WC   =   100.;   INIMIX=   1;  MIXPRE=   1;  MAXMIX= -45

 Intra band minimization:
   WEIMIN = 0.0010     energy-eigenvalue tresh-hold
   EBREAK =  0.65E-09  absolut break condition
   DEPER  =   0.30     relativ break condition  

   TIME   =   0.40     timestep for ELM

  volume/ion in A,a.u.               =      28.75       194.05
  Fermi-wavevector in a.u.,A,eV,Ry     =   0.839089  1.585648  9.579461  0.704071
  Thomas-Fermi vector in A             =   1.953250
 
 Write flags
   LWAVE        =      T    write WAVECAR
   LDOWNSAMPLE  =      F    k-point downsampling of WAVECAR
   LCHARG       =      T    write CHGCAR
   LVTOT        =      F    write LOCPOT, total local potential
   LVHAR        =      F    write LOCPOT, Hartree potential only
   LELF         =      F    write electronic localiz. function (ELF)
   LORBIT       =     11    0 simple, 1 ext, 2 COOP (PROOUT), +10 PAW based schemes


 Dipole corrections
   LMONO  =      F    monopole corrections only (constant potential shift)
   LDIPOL =      F    correct potential (dipole corrections)
   IDIPOL =      0    1-x, 2-y, 3-z, 4-all directions 
   EPSILON=  1.0000000 bulk dielectric constant

 Exchange correlation treatment:
   GGA     =    PE    GGA type
   LEXCH   =     8    internal setting for exchange type
   VOSKOWN=      0    Vosko Wilk Nusair interpolation
   LHFCALC =     F    Hartree Fock is set to
   LHFONE  =     F    Hartree Fock one center treatment
   AEXX    =    0.0000 exact exchange contribution

 Linear response parameters
   LEPSILON=     F    determine dielectric tensor
   LRPA    =     F    only Hartree local field effects (RPA)
   LNABLA  =     F    use nabla operator in PAW spheres
   LVEL    =     F    velocity operator in full k-point grid
   LINTERFAST=   F  fast interpolation
   KINTER  =     0    interpolate to denser k-point grid
   CSHIFT  =0.1000    complex shift for real part using Kramers Kronig
   OMEGAMAX=  -1.0    maximum frequency
   DEG_THRESHOLD= 0.2000000E-02 threshold for treating states as degnerate
   RTIME   =   -0.100 relaxation time in fs
  (WPLASMAI=    0.000 imaginary part of plasma frequency in eV, 0.658/RTIME)
   DFIELD  = 0.0000000 0.0000000 0.0000000 field for delta impulse in time
 
 Orbital magnetization related:
   ORBITALMAG=     F  switch on orbital magnetization
   LCHIMAG   =     F  perturbation theory with respect to B field
   DQ        =  0.001000  dq finite difference perturbation B field
   LLRAUG    =     F  two centre corrections for induced B field



--------------------------------------------------------------------------------------------------------


 conjugate gradient relaxation of ions
 charge density and potential will be updated during run
 spin polarized calculation
 Variant of blocked Davidson
 Davidson routine will perform the subspace rotation
 perform sub-space diagonalisation
    after iterative eigenvector-optimisation
 modified Broyden-mixing scheme, WC =      100.0
 initial mixing is a Kerker type mixing with AMIX =  0.4000 and BMIX =      1.0000
 Hartree-type preconditioning will be used
 using additional bands           82
 real space projection scheme for non local part
 use partial core corrections
 calculate Harris-corrections to forces 
   (improved forces if not selfconsistent)
 use gradient corrections 
 use of overlap-Matrix (Vanderbilt PP)
 Gauss-broadening in eV      SIGMA  =   0.05


--------------------------------------------------------------------------------------------------------


  energy-cutoff  :      600.00
  volume of cell :     4485.77
      direct lattice vectors                 reciprocal lattice vectors
    24.602050990 -0.000445762  0.001938149     0.040647018 -0.000000503 -0.000006333
     0.000618375 24.748842736  2.001271312     0.000000678  0.040351516  0.000672909
     0.001144846 -0.122693747  7.357423404    -0.000010892 -0.010975898  0.135734113

  length of vectors
    24.602051071 24.829625531  7.358446453     0.040647019  0.040357126  0.136177163


 
 k-points in units of 2pi/SCALE and weight: read from INCAR                         
   0.00000000  0.00000000  0.00000000       0.333
  -0.00000363 -0.00365863  0.04524470       0.667
 
 k-points in reciprocal lattice and weights: read from INCAR                         
   0.00000000  0.00000000  0.00000000       0.333
  -0.00000000  0.00000000  0.33333333       0.667
 
 position of ions in fractional coordinates (direct lattice) 
   0.91010233  0.96850848  0.12823282
   0.92498043  0.97748239  0.42294450
   0.91050481  0.81197589  0.92560222
   0.58990127  0.46831955  0.62797814
   0.57459262  0.30323085  0.13037241
   0.07466416  0.80329804  0.13042649
   0.57499443  0.47732304  0.92266622
   0.58934657  0.31209208  0.42523311
   0.42469035  0.47731470  0.42220356
   0.08930249  0.81197918  0.42545147
   0.07503958  0.97735093  0.92260789
   0.42515838  0.30330236  0.63001581
   0.92526797  0.80321373  0.63068147
   0.09005283  0.96813401  0.62808333
   0.41053595  0.31189657  0.92511352
   0.40981999  0.46807296  0.12763525
   0.81897693  0.04065989  0.43402918
   0.84685457  0.07430846  0.11889684
   0.84736070  0.70605068  0.93509602
   0.65322986  0.57406545  0.61862207
   0.65265959  0.20631324  0.43500619
   0.18018322  0.73955949  0.11921621
   0.68107595  0.54035694  0.93368802
   0.68012191  0.23953665  0.11907664
   0.31861462  0.54028106  0.43312570
   0.15255590  0.70617208  0.43479112
   0.15330990  0.07393886  0.61833145
   0.34738256  0.20605516  0.93442473
   0.81978110  0.73945761  0.61950824
   0.18115750  0.04032111  0.93349737
   0.31968893  0.23949076  0.61898518
   0.34616077  0.57362893  0.11733527
   0.77674368  0.08352352  0.43111209
   0.80368336  0.11610946  0.12200367
   0.80443655  0.66399013  0.93142141
   0.69637878  0.61588519  0.62188652
   0.69557285  0.16426011  0.43138911
   0.22224858  0.69654799  0.12182093
   0.72328834  0.58323436  0.93090607
   0.72235131  0.19668366  0.12204177
   0.27636821  0.58312730  0.43030761
   0.19541769  0.66407003  0.43105105
   0.19639503  0.11581073  0.62158367
   0.30446659  0.16399574  0.93088197
   0.77764698  0.69650823  0.62219194
   0.22337618  0.08318894  0.93059370
   0.27756462  0.19653148  0.62177899
   0.30318755  0.61560963  0.12096103
   0.74321083  0.08797280  0.58172577
   0.79623341  0.15212637  0.97127919
   0.79713196  0.62779486  0.08176324
   0.70380170  0.65197400  0.47134096
   0.70285460  0.12809509  0.58180066
   0.25557847  0.69193861  0.97080958
   0.75678263  0.58767312  0.08155728
   0.75575070  0.19212410  0.97116485
   0.24292490  0.58765224  0.58111056
   0.20264217  0.62784663  0.58134518
   0.20373385  0.15192568  0.47104880
   0.29722636  0.12780221  0.08125511
   0.74424771  0.69200069  0.47134493
   0.25689716  0.08765330  0.08117320
   0.24412576  0.19200959  0.47102326
   0.29585317  0.65174441  0.97049449
   0.89302010  0.99752118  0.27575236
   0.89350944  0.78291281  0.77810746
   0.60699367  0.49732207  0.77547091
   0.60639296  0.28302262  0.27777064
   0.10640559  0.78300176  0.27784458
   0.39265603  0.49715074  0.27489168
   0.10709967  0.99722328  0.77540342
   0.39345506  0.28294139  0.77747269
   0.77006425  0.11980728  0.27662807
   0.77089944  0.66023440  0.77669143
   0.72998222  0.61954351  0.77649865
   0.72913129  0.16048279  0.27668796
   0.22892753  0.66024508  0.27625406
   0.26969832  0.61942001  0.27584660
   0.23001498  0.11950388  0.77615498
   0.27089689  0.16023140  0.77625362
   0.99565887  0.89051893  0.02666756
   0.00420012  0.89051537  0.52660635
   0.50414244  0.39053826  0.52637714
   0.49563548  0.39044057  0.02631049
   0.32349882  0.13139237  0.19910695
   0.75094887  0.55936482  0.19932794
   0.74972981  0.22023930  0.85301515
   0.74903970  0.05968599  0.69954865
   0.75020820  0.72019226  0.35334940
   0.67752754  0.64843176  0.35347453
   0.17637190  0.63145585  0.69923430
   0.17744347  0.14835263  0.35322503
   0.82338361  0.63134706  0.19966327
   0.25002614  0.22023154  0.35306641
   0.24875812  0.55940238  0.69902963
   0.24965993  0.72016693  0.85290115
   0.32207628  0.64811059  0.85249124
   0.67658073  0.13167925  0.69968747
   0.82249117  0.14852673  0.85334183
   0.25109288  0.05935261  0.19899294
   0.57519115  0.48782243  0.06330081
   0.42489228  0.29291369  0.48929059
   0.39658750  0.47104074  0.98692030
   0.10235223  0.80868649  0.56634223
   0.07518463  0.98797689  0.06310174
   0.39749153  0.30854987  0.06603301
   0.89688363  0.97161880  0.98749755
   0.92508692  0.79275103  0.49001883
   0.10335872  0.97111202  0.48742394
   0.60317104  0.47137270  0.48727534
   0.57477164  0.29274043  0.98974064
   0.92481947  0.98801573  0.56354186
   0.60246346  0.30890073  0.56604871
   0.42447456  0.48792057  0.56271866
   0.07489465  0.79288808  0.98973215
   0.89738440  0.80872016  0.06644923
   0.94952324  0.93351488  0.18443516
   0.95875834  0.93912628  0.36652811
   0.94967959  0.84724026  0.86915687
   0.55041431  0.43338893  0.68416303
   0.54095555  0.34172576  0.18664457
   0.04101150  0.84176574  0.18679501
   0.54116603  0.43901535  0.86624544
   0.55011418  0.34727492  0.36878973
   0.45859156  0.43902380  0.36607602
   0.05009846  0.84719954  0.36903609
   0.04121221  0.93901840  0.86637607
   0.45877714  0.34178464  0.68641679
   0.95884447  0.84175442  0.68695447
   0.05053249  0.93326188  0.68439851
   0.44969844  0.34717065  0.86869865
   0.44936071  0.43325290  0.18407416
   0.85214206  0.03827692  0.27617573
   0.85280716  0.74197101  0.77760148
   0.64789215  0.53804628  0.77589584
   0.64714749  0.24213401  0.27730414
   0.14714456  0.74209394  0.27731576
   0.35169330  0.53782335  0.27504839
   0.14799503  0.03795409  0.77569337
   0.35275374  0.24200585  0.77698730
   0.82525426  0.00863291  0.56652317
   0.87668478  0.07070530  0.98637869
   0.87684907  0.70992811  0.06829581
   0.62345439  0.57045095  0.48600066
   0.62322209  0.21028026  0.56833294
   0.17395414  0.77159337  0.98671796
   0.67482039  0.50824849  0.06598566
   0.67373375  0.27143058  0.98629993
   0.32501123  0.50831971  0.56571619
   0.12304945  0.71007226  0.56797906
   0.12355742  0.07024759  0.48570125
   0.37694212  0.20991265  0.06746523
   0.82604512  0.77149952  0.48704641
   0.17487440  0.00826689  0.06591847
   0.32592879  0.27152188  0.48647374
   0.37567721  0.56974643  0.98416932
 
 position of ions in cartesian coordinates  (Angst):
  22.39112973 23.95332492  2.88347526
  22.75750445 24.13925310  5.06978200
  22.40184748 19.98149219  8.43679615
  14.51378955 11.51305483  5.55867888
  14.13649367  7.48836070  1.56716584
   1.83753744 19.86466110  2.56736493
  14.14739370 11.69973120  7.74481335
  14.49981418  7.67148163  3.75434317
  10.44903222 11.76099548  4.06238971
   2.19801369 20.04330499  4.75539032
   1.84778830 24.07507274  8.74410667
  10.46067707  7.42889390  5.24310741
  22.76470844 19.80081714  6.24943249
   2.21680211 23.88309422  6.55874834
  10.10127842  7.60539054  7.43143719
  10.08284792 11.56842128  1.87660186
  20.14903420  0.95266743  3.27629521
  20.83454138  1.82408305  1.02512712
  20.84831828 17.35882897  8.29453861
  16.07185753 14.13126327  5.70159126
  16.05739013  5.05235053  3.61467844
   4.43347066 18.28853410  2.35753257
  16.75726836 13.25834768  7.95225893
  16.73267832  5.91334184  1.35679326
   7.83940308 13.31804715  4.26855570
   3.75412245 17.42352758  4.61247997
   3.77249149  1.75396738  4.69759513
   8.54752076  4.98482376  7.28800391
  20.16946291 18.22434489  6.03942855
   4.45793980  0.88328582  6.94917997
   7.86586002  5.85103096  5.03404164
   8.51675386 14.18210148  2.01194326
  19.11003274  2.01386949  3.34053286
  19.77247056  2.85824734  1.13155687
  19.79226586 16.31834906  8.18324523
  17.13343903 15.16583381  5.80938548
  17.11311418  4.01200878  3.50398951
   5.46834104 17.22371104  2.29070044
  17.79580307 14.31983667  8.01768214
  17.77158522  4.85239709  1.29293033
   6.80007808 14.37880654  4.33348686
   4.80858022 16.38199037  4.50078814
   4.83250385  2.78982946  4.80540357
   7.49166982  3.94435571  7.17768289
  19.13285361 17.16108705  5.97313865
   5.49662898  1.94455248  7.01368846
   6.82949237  4.78751467  4.96854207
   7.45955478 15.22064949  2.12255099
  18.28523120  2.10551959  4.45750066
  19.59018091  3.64542682  7.45210157
  19.61156298 15.52680907  1.85949961
  17.31590798 16.07745775  4.77399597
  17.29241003  3.09850873  4.53826907
   6.28929378 17.00545353  8.52790932
  18.61886156 14.53388578  1.77761159
  18.59424800  4.63535629  7.53122819
   5.97747935 14.47230595  5.45199885
   4.98646684 15.46705969  5.53408682
   5.01290376  3.70209931  3.77014485
   7.31255012  3.15285487  0.85417123
  18.31098762 17.06805340  4.85420779
   6.32034423  2.15924371  0.77314157
   6.00665237  4.69411459  3.85025397
   7.28010882 16.01071430  8.44522969
  21.97105869 24.65326376  4.02686823
  21.98353969 19.28031870  7.29341870
  14.93448448 12.21272966  6.70192063
  14.91900353  6.97013137  2.61125654
   2.61859811 19.34425008  3.61142537
   9.66076576 12.27000293  3.01818905
   2.63637589 24.58493731  7.70089320
   9.68086653  6.90690555  6.28720083
  18.94555079  2.93080776  2.27652921
  18.96700482 16.24439854  7.03724996
  17.96033185 15.23738790  6.95431878
  17.93854116  3.93749037  2.35829324
   5.63281131 16.30630486  3.35429133
   6.63583073 15.29596366  3.26967048
   5.65980274  2.86225087  5.95010630
   6.66560686  3.87017940  6.03241805
  24.49583158 22.03559714  1.98030428
   0.10448523 21.97461177  5.65663692
  12.40378201  9.60056195  4.65532957
  12.19392098  9.65950329  0.97591554
   7.95904361  3.22723575  1.72849290
  18.47545660 13.81884102  2.58743629
  18.44600375  5.34567402  6.71820528
  18.42875071  1.39099508  5.26777519
  18.45751021 17.78023683  4.04249525
  16.66937268 16.00426454  3.89966282
   4.34030155 15.54193115  6.40861909
   4.36596944  3.62813826  2.89606386
  20.25754462 15.60024459  2.73409982
   6.15169615  5.40704531  3.03888676
   6.12110607 13.75868406  6.26305505
   6.14356813 17.71854127  7.71688819
   7.92511376 15.93524825  7.56980835
  16.64615600  3.17276020  5.41273419
  20.23603840  3.57079833  6.57723358
   6.17766441  1.44438124  1.58334262
  14.15125622 12.06501762  1.44311067
  10.45396292  7.18905243  4.18694130
   9.75828705 11.53644736  8.20463945
   2.51922332 19.94452240  5.78541905
   1.85037921 24.44350899  2.44162175
   9.77937338  7.62797319  1.10409522
  22.06690825 23.92488129  9.21164870
  22.76008668 19.55913607  5.19357884
   2.54399500 23.97404870  5.52984324
  14.84009413 11.60587430  4.52960471
  14.14187523  7.12329556  7.86890799
  22.75371181 24.38269073  6.12529604
  14.82267589  7.57521642  4.78402189
  10.44389071 12.00623823  5.11744355
   1.84418535 19.50159507  8.86880778
  22.07807292 20.00633519  2.10910286
  23.36100765 23.08036072  3.22702447
  23.58842198 23.19689055  4.57800719
  23.36558460 20.86115243  8.09215336
  13.54237218 10.64168658  5.90207274
  13.30904099  8.43417584  2.05815752
   1.00970127 20.80979112  3.05901110
  13.31505738 10.75859767  7.25297217
  13.53457410  8.54915891  3.40939972
  11.28298345 10.82021140  3.57287086
   1.23347122 20.92190754  4.41072799
   1.01547737 23.13330141  8.25360603
  11.28785572  8.37435070  5.73515192
  23.59084759 20.74773537  6.74065228
   1.24456364 23.01315752  6.90321774
  11.06471306  8.48528737  7.08703803
  11.05567371 10.69972274  2.22223903
  20.96478222  0.91304461  2.11019583
  20.98215436 18.26713695  7.20768151
  15.94069669 13.22053648  6.78662649
  15.92162271  5.95822463  2.52607407
   3.62083444 18.33187563  3.52574594
   8.65302400 13.27660214  3.10065957
   3.64189276  0.84408110  5.78334785
   8.67950479  5.89387596  6.20162760
  20.30360126  0.14377781  4.18702709
  21.56941659  1.62846104  7.40040531
  21.57280263 17.56112872  1.92493943
  15.33916593 14.05809359  4.71854806
  15.33332236  5.13418440  4.60350181
   4.28123539 18.97490138  8.80420663
  16.60235544 12.57016508  1.50393544
  16.57652905  6.59627967  7.80113821
   7.99690484 12.51076973  5.18012906
   3.02835809 17.50372428  5.60014815
   3.04036534  1.67889894  3.71433370
   9.27375624  5.18664967  0.91719297
  20.32343885 19.03359454  5.12898750
   4.30234940  0.19643017  0.50187334
   8.01924151  6.66001978  4.12321394
   9.24390886 13.97964602  8.38189574
 


--------------------------------------------------------------------------------------------------------


 k-point  1 :   0.0000 0.0000 0.0000  plane waves:  149725
 k-point  2 :  -0.0000 0.0000 0.3333  plane waves:  149660

 maximum and minimum number of plane-waves per node :     37612    37339

 maximum number of plane-waves:    149725
 maximum index in each direction: 
   IXMAX=   49   IYMAX=   49   IZMAX=   14
   IXMIN=  -49   IYMIN=  -49   IZMIN=  -15


 real space projection operators:
  total allocation   :      12236.12 KBytes
  max/ min on nodes  :       3094.48       3023.64


 parallel 3D FFT for wavefunctions:
    minimum data exchange during FFTs selected (reduces bandwidth)
 parallel 3D FFT for charge:
    minimum data exchange during FFTs selected (reduces bandwidth)


 total amount of memory used by VASP MPI-rank0   108919. kBytes
=======================================================================

   base      :      30000. kBytes
   nonlr-proj:       6239. kBytes
   fftplans  :      11254. kBytes
   grid      :      31214. kBytes
   one-center:       1213. kBytes
   wavefun   :      28999. kBytes
 
     INWAV:  cpu time    0.0002: real time    0.0008
 Broyden mixing: mesh for mixing (old mesh)
   NGX = 99   NGY = 99   NGZ = 29
  (NGX  =300   NGY  =300   NGZ  = 96)
  gives a total of 284229 points

 initial charge density was supplied:
 charge density of overlapping atoms calculated
 number of electron     604.0000000 magnetization       0.0000000
 keeping initial charge density in first step


--------------------------------------------------------------------------------------------------------


 Maximum index for non-local projection operator          657
 Maximum index for augmentation-charges          537 (set IRDMAX)


--------------------------------------------------------------------------------------------------------


 First call to EWALD:  gamma=   0.107
 Maximum number of real-space cells 2x 2x 6
 Maximum number of reciprocal cells 4x 4x 1

    FEWALD:  cpu time    0.0155: real time    0.0155


--------------------------------------- Iteration      1(   1)  ---------------------------------------


    POTLOK:  cpu time    0.4983: real time    0.5449
    SETDIJ:  cpu time    0.0662: real time    0.0663
     EDDAV:  cpu time   12.6020: real time   12.7181
       DOS:  cpu time    0.0042: real time    0.0052
    --------------------------------------------
      LOOP:  cpu time   13.1707: real time   13.3347

 eigenvalue-minimisations  :  3072
 total energy-change (2. order) : 0.5751632E+04  (-0.2605512E+05)
 number of electron     604.0000000 magnetization       0.0000000
 augmentation part      604.0000000 magnetization       0.0000000

 Free energy of the ion-electron system (eV)
  ---------------------------------------------------
  alpha Z        PSCENC =       376.59334335
  Ewald energy   TEWEN  =     42446.39434298
  -Hartree energ DENC   =    -65951.82230865
  -exchange      EXHF   =         0.00000000
  -V(xc)+E(xc)   XCENC  =      2113.44160781
  PAW double counting   =     22087.95224925   -22402.63741193
  entropy T*S    EENTRO =        -0.04365171
  eigenvalues    EBANDS =     -1610.05688516
  atomic energy  EATOM  =     28691.81066055
  Solvation  Ediel_sol  =         0.00000000
  ---------------------------------------------------
  free energy    TOTEN  =      5751.63194649 eV

  energy without entropy =     5751.67559820  energy(sigma->0) =     5751.65377234


--------------------------------------------------------------------------------------------------------




--------------------------------------- Iteration      1(   2)  ---------------------------------------


     EDDAV:  cpu time   17.1085: real time   17.1402
       DOS:  cpu time    0.0032: real time    0.0032
    --------------------------------------------
      LOOP:  cpu time   17.1116: real time   17.1434

 eigenvalue-minimisations  :  4480
 total energy-change (2. order) :-0.5905894E+04  (-0.5674610E+04)
 number of electron     604.0000000 magnetization       0.0000000
 augmentation part      604.0000000 magnetization       0.0000000

 Free energy of the ion-electron system (eV)
  ---------------------------------------------------
  alpha Z        PSCENC =       376.59334335
  Ewald energy   TEWEN  =     42446.39434298
  -Hartree energ DENC   =    -65951.82230865
  -exchange      EXHF   =         0.00000000
  -V(xc)+E(xc)   XCENC  =      2113.44160781
  PAW double counting   =     22087.95224925   -22402.63741193
  entropy T*S    EENTRO =        -0.00000000
  eigenvalues    EBANDS =     -7515.99419268
  atomic energy  EATOM  =     28691.81066055
  Solvation  Ediel_sol  =         0.00000000
  ---------------------------------------------------
  free energy    TOTEN  =      -154.26170933 eV

  energy without entropy =     -154.26170933  energy(sigma->0) =     -154.26170933


--------------------------------------------------------------------------------------------------------




--------------------------------------- Iteration      1(   3)  ---------------------------------------


     EDDAV:  cpu time   14.5584: real time   14.5734
       DOS:  cpu time    0.0033: real time    0.0033
    --------------------------------------------
      LOOP:  cpu time   14.5617: real time   14.5767

 eigenvalue-minimisations  :  3744
 total energy-change (2. order) :-0.1101920E+04  (-0.1094635E+04)
 number of electron     604.0000000 magnetization       0.0000000
 augmentation part      604.0000000 magnetization       0.0000000

 Free energy of the ion-electron system (eV)
  ---------------------------------------------------
  alpha Z        PSCENC =       376.59334335
  Ewald energy   TEWEN  =     42446.39434298
  -Hartree energ DENC   =    -65951.82230865
  -exchange      EXHF   =         0.00000000
  -V(xc)+E(xc)   XCENC  =      2113.44160781
  PAW double counting   =     22087.95224925   -22402.63741193
  entropy T*S    EENTRO =        -0.07441443
  eigenvalues    EBANDS =     -8617.84010192
  atomic energy  EATOM  =     28691.81066055
  Solvation  Ediel_sol  =         0.00000000
  ---------------------------------------------------
  free energy    TOTEN  =     -1256.18203299 eV

  energy without entropy =    -1256.10761856  energy(sigma->0) =    -1256.14482578


--------------------------------------------------------------------------------------------------------




--------------------------------------- Iteration      1(   4)  ---------------------------------------


     EDDAV:  cpu time   14.9738: real time   14.9931
       DOS:  cpu time    0.0024: real time    0.0024
    --------------------------------------------
      LOOP:  cpu time   14.9762: real time   14.9955

 eigenvalue-minimisations  :  3968
 total energy-change (2. order) :-0.4050035E+02  (-0.4016408E+02)
 number of electron     604.0000000 magnetization       0.0000000
 augmentation part      604.0000000 magnetization       0.0000000

 Free energy of the ion-electron system (eV)
  ---------------------------------------------------
  alpha Z        PSCENC =       376.59334335
  Ewald energy   TEWEN  =     42446.39434298
  -Hartree energ DENC   =    -65951.82230865
  -exchange      EXHF   =         0.00000000
  -V(xc)+E(xc)   XCENC  =      2113.44160781
  PAW double counting   =     22087.95224925   -22402.63741193
  entropy T*S    EENTRO =        -0.11188507
  eigenvalues    EBANDS =     -8658.30298560
  atomic energy  EATOM  =     28691.81066055
  Solvation  Ediel_sol  =         0.00000000
  ---------------------------------------------------
  free energy    TOTEN  =     -1296.68238731 eV

  energy without entropy =    -1296.57050224  energy(sigma->0) =    -1296.62644478


--------------------------------------------------------------------------------------------------------




--------------------------------------- Iteration      1(   5)  ---------------------------------------


     EDDAV:  cpu time   16.4267: real time   16.4451
       DOS:  cpu time    0.0023: real time    0.0023
    CHARGE:  cpu time    0.6889: real time    0.6921
    MIXING:  cpu time    0.0167: real time    0.0197
    --------------------------------------------
      LOOP:  cpu time   17.1346: real time   17.1594

 eigenvalue-minimisations  :  4480
 total energy-change (2. order) :-0.1222751E+01  (-0.1218462E+01)
 number of electron     603.9999885 magnetization      -0.0002590
 augmentation part       36.8247638 magnetization      -0.0008334

 Broyden mixing:
  rms(total) = 0.86381E+01    rms(broyden)= 0.86375E+01
  rms(prec ) = 0.94827E+01
  weight for this iteration     100.00

 Free energy of the ion-electron system (eV)
  ---------------------------------------------------
  alpha Z        PSCENC =       376.59334335
  Ewald energy   TEWEN  =     42446.39434298
  -Hartree energ DENC   =    -65951.82230865
  -exchange      EXHF   =         0.00000000
  -V(xc)+E(xc)   XCENC  =      2113.44160781
  PAW double counting   =     22087.95224925   -22402.63741193
  entropy T*S    EENTRO =        -0.11053669
  eigenvalues    EBANDS =     -8659.52708454
  atomic energy  EATOM  =     28691.81066055
  Solvation  Ediel_sol  =         0.00000000
  ---------------------------------------------------
  free energy    TOTEN  =     -1297.90513788 eV

  energy without entropy =    -1297.79460119  energy(sigma->0) =    -1297.84986953


--------------------------------------------------------------------------------------------------------




--------------------------------------- Iteration      1(   6)  ---------------------------------------


    POTLOK:  cpu time    0.4083: real time    0.4086
    SETDIJ:  cpu time    0.0641: real time    0.0641
     EDDAV:  cpu time   14.9607: real time   14.9891
       DOS:  cpu time    0.0026: real time    0.0026
    CHARGE:  cpu time    0.6713: real time    0.6749
    MIXING:  cpu time    0.0187: real time    0.0196
    --------------------------------------------
      LOOP:  cpu time   16.1256: real time   16.1589

 eigenvalue-minimisations  :  4032
 total energy-change (2. order) :-0.2079368E+03  (-0.2496920E+03)
 number of electron     603.9999908 magnetization       0.0007262
 augmentation part       56.6361353 magnetization      -0.0522457

 Broyden mixing:
  rms(total) = 0.21821E+02    rms(broyden)= 0.21821E+02
  rms(prec ) = 0.22175E+02
  weight for this iteration     100.00

 eigenvalues of (default mixing * dielectric matrix)
  average eigenvalue GAMMA=   0.1093
  0.1093

 Free energy of the ion-electron system (eV)
  ---------------------------------------------------
  alpha Z        PSCENC =       376.59334335
  Ewald energy   TEWEN  =     42446.39434298
  -Hartree energ DENC   =    -66281.48083870
  -exchange      EXHF   =         0.00000000
  -V(xc)+E(xc)   XCENC  =      2149.54505232
  PAW double counting   =     32731.34057871   -32955.47679180
  entropy T*S    EENTRO =        -0.13252080
  eigenvalues    EBANDS =     -8664.43575602
  atomic energy  EATOM  =     28691.81066055
  Solvation  Ediel_sol  =         0.00000000
  ---------------------------------------------------
  free energy    TOTEN  =     -1505.84192941 eV

  energy without entropy =    -1505.70940861  energy(sigma->0) =    -1505.77566901


--------------------------------------------------------------------------------------------------------




--------------------------------------- Iteration      1(   7)  ---------------------------------------


    POTLOK:  cpu time    0.3984: real time    0.3984
    SETDIJ:  cpu time    0.0622: real time    0.0622
     EDDAV:  cpu time   13.4427: real time   13.4579
       DOS:  cpu time    0.0025: real time    0.0025
    CHARGE:  cpu time    0.6750: real time    0.6787
    MIXING:  cpu time    0.0089: real time    0.0107
    --------------------------------------------
      LOOP:  cpu time   14.5897: real time   14.6103

 eigenvalue-minimisations  :  3552
 total energy-change (2. order) : 0.1002052E+03  (-0.2124734E+02)
 number of electron     603.9999906 magnetization       0.0080108
 augmentation part       55.0679105 magnetization      -0.0608497

 Broyden mixing:
  rms(total) = 0.13819E+02    rms(broyden)= 0.13819E+02
  rms(prec ) = 0.14306E+02
  weight for this iteration     100.00

 eigenvalues of (default mixing * dielectric matrix)
  average eigenvalue GAMMA=   0.5002
  0.5002  0.5002

 Free energy of the ion-electron system (eV)
  ---------------------------------------------------
  alpha Z        PSCENC =       376.59334335
  Ewald energy   TEWEN  =     42446.39434298
  -Hartree energ DENC   =    -66441.48806316
  -exchange      EXHF   =         0.00000000
  -V(xc)+E(xc)   XCENC  =      2152.08332899
  PAW double counting   =     34330.74618540   -34586.29865784
  entropy T*S    EENTRO =        -0.14055132
  eigenvalues    EBANDS =     -8375.33734082
  atomic energy  EATOM  =     28691.81066055
  Solvation  Ediel_sol  =         0.00000000
  ---------------------------------------------------
  free energy    TOTEN  =     -1405.63675187 eV

  energy without entropy =    -1405.49620055  energy(sigma->0) =    -1405.56647621


--------------------------------------------------------------------------------------------------------




--------------------------------------- Iteration      1(   8)  ---------------------------------------


    POTLOK:  cpu time    0.3729: real time    0.3732
    SETDIJ:  cpu time    0.0621: real time    0.0621
     EDDAV:  cpu time   15.8970: real time   15.9146
       DOS:  cpu time    0.0033: real time    0.0034
    CHARGE:  cpu time    0.6826: real time    0.6840
    MIXING:  cpu time    0.0090: real time    0.0098
    --------------------------------------------
      LOOP:  cpu time   17.0269: real time   17.0471

 eigenvalue-minimisations  :  4320
 total energy-change (2. order) : 0.2491913E+03  (-0.2781750E+02)
 number of electron     603.9999900 magnetization       0.0075942
 augmentation part       45.3322065 magnetization       0.0131427

 Broyden mixing:
  rms(total) = 0.34154E+01    rms(broyden)= 0.34152E+01
  rms(prec ) = 0.34668E+01
  weight for this iteration     100.00

 eigenvalues of (default mixing * dielectric matrix)
  average eigenvalue GAMMA=   0.4690
  0.4842  0.4842  0.4386

 Free energy of the ion-electron system (eV)
  ---------------------------------------------------
  alpha Z        PSCENC =       376.59334335
  Ewald energy   TEWEN  =     42446.39434298
  -Hartree energ DENC   =    -66918.82773043
  -exchange      EXHF   =         0.00000000
  -V(xc)+E(xc)   XCENC  =      2164.77527588
  PAW double counting   =     39703.10265201   -40042.39837315
  entropy T*S    EENTRO =        -0.00001023
  eigenvalues    EBANDS =     -7577.89556581
  atomic energy  EATOM  =     28691.81066055
  Solvation  Ediel_sol  =         0.00000000
  ---------------------------------------------------
  free energy    TOTEN  =     -1156.44540486 eV

  energy without entropy =    -1156.44539463  energy(sigma->0) =    -1156.44539974


--------------------------------------------------------------------------------------------------------




[...]
     14.84009     11.60587      4.52960         0.000722      0.003971      0.004605
     14.14188      7.12330      7.86891         0.002176      0.000692      0.004070
     22.75371     24.38269      6.12530        -0.003410     -0.003252     -0.000856
     14.82268      7.57522      4.78402         0.004219     -0.003971     -0.001016
     10.44389     12.00624      5.11744        -0.002249     -0.001857     -0.000647
      1.84419     19.50160      8.86881         0.002751     -0.000267     -0.001846
     22.07807     20.00634      2.10910        -0.001252     -0.002625     -0.004156
     23.36101     23.08036      3.22702         0.002022      0.001245     -0.000545
     23.58842     23.19689      4.57801        -0.000580     -0.000634     -0.001690
     23.36558     20.86115      8.09215        -0.002489     -0.002244      0.000883
     13.54237     10.64169      5.90207        -0.002044      0.001071     -0.002130
     13.30904      8.43418      2.05816         0.000595      0.000889     -0.000586
      1.00970     20.80979      3.05901         0.000910      0.000138      0.002820
     13.31506     10.75860      7.25297        -0.000540     -0.000009      0.001045
     13.53457      8.54916      3.40940         0.002897     -0.001825     -0.002148
     11.28298     10.82021      3.57287         0.002570     -0.001418     -0.001776
      1.23347     20.92191      4.41073         0.003393     -0.001717      0.000859
      1.01548     23.13330      8.25361        -0.000039     -0.000211     -0.002086
     11.28786      8.37435      5.73515         0.000944      0.001233      0.001343
     23.59085     20.74774      6.74065        -0.002225     -0.000261      0.000281
      1.24456     23.01316      6.90322        -0.006031     -0.001566     -0.003289
     11.06471      8.48529      7.08704        -0.001962     -0.002356      0.002418
     11.05567     10.69972      2.22224         0.002729      0.000123     -0.000767
     20.96478      0.91304      2.11020        -0.001161      0.002519     -0.000001
     20.98215     18.26714      7.20768         0.000131      0.000875     -0.000272
     15.94070     13.22054      6.78663         0.004296      0.003716     -0.000709
     15.92162      5.95822      2.52607        -0.002024      0.000509      0.002289
      3.62083     18.33188      3.52575        -0.003400      0.002961     -0.001281
      8.65302     13.27660      3.10066        -0.004812      0.002663      0.004801
      3.64189      0.84408      5.78335         0.001391      0.002495     -0.001716
      8.67950      5.89388      6.20163        -0.001482      0.000142     -0.001681
     20.30360      0.14378      4.18703         0.002349      0.000303      0.001455
     21.56942      1.62846      7.40041         0.001092     -0.001415     -0.002541
     21.57280     17.56113      1.92494        -0.001013      0.001834      0.001427
     15.33917     14.05809      4.71855         0.003442     -0.000475      0.001789
     15.33332      5.13418      4.60350         0.001638      0.000188     -0.000225
      4.28124     18.97490      8.80421        -0.002571      0.001532     -0.001409
     16.60236     12.57017      1.50394        -0.001239      0.000460      0.004328
     16.57653      6.59628      7.80114        -0.000221      0.002077     -0.003525
      7.99690     12.51077      5.18013        -0.001629     -0.001160      0.004315
      3.02836     17.50372      5.60015         0.001702      0.000735      0.001435
      3.04037      1.67890      3.71433         0.001443     -0.000611     -0.001303
      9.27376      5.18665      0.91719        -0.002959      0.000916     -0.001385
     20.32344     19.03359      5.12899         0.001896      0.001642     -0.005846
      4.30235      0.19643      0.50187        -0.000543     -0.003148      0.005252
      8.01924      6.66002      4.12321         0.002756      0.000978     -0.002215
      9.24391     13.97965      8.38190        -0.002162     -0.001325     -0.000071
 -----------------------------------------------------------------------------------
    total drift:                               -0.012089      0.099857      0.018427


--------------------------------------------------------------------------------------------------------



  FREE ENERGIE OF THE ION-ELECTRON SYSTEM (eV)
  ---------------------------------------------------
  free  energy   TOTEN  =     -1178.34358404 eV

  energy  without entropy=    -1178.34032762  energy(sigma->0) =    -1178.34195583
 


--------------------------------------------------------------------------------------------------------


    POTLOK:  cpu time    0.4564: real time    0.4567


--------------------------------------------------------------------------------------------------------




--------------------------------------------------------------------------------------------------------


  
 reached required accuracy - stopping structural energy minimisation
 writing wavefunctions
     LOOP+:  cpu time  816.5763: real time  825.4058
    4ORBIT:  cpu time    0.0000: real time    0.0000
 


 total charge     
 
# of ion       s       p       d       tot
------------------------------------------
    1        0.866   1.768   0.000   2.634
    2        0.867   1.769   0.000   2.635
    3        0.866   1.767   0.000   2.634
    4        0.867   1.768   0.000   2.634
    5        0.867   1.768   0.000   2.635
    6        0.867   1.769   0.000   2.635
    7        0.867   1.769   0.000   2.635
    8        0.866   1.768   0.000   2.634
    9        0.867   1.769   0.000   2.635
   10        0.866   1.767   0.000   2.634
   11        0.867   1.769   0.000   2.635
   12        0.867   1.769   0.000   2.635
   13        0.867   1.768   0.000   2.635
   14        0.867   1.768   0.000   2.634
   15        0.866   1.768   0.000   2.634
   16        0.867   1.768   0.000   2.634
   17        0.862   1.715   0.000   2.576
   18        0.862   1.715   0.000   2.577
   19        0.862   1.715   0.000   2.577
   20        0.862   1.715   0.000   2.577
   21        0.862   1.715   0.000   2.577
   22        0.862   1.715   0.000   2.577
   23        0.862   1.715   0.000   2.576
   24        0.862   1.715   0.000   2.577
   25        0.862   1.715   0.000   2.576
   26        0.862   1.715   0.000   2.577
   27        0.862   1.715   0.000   2.577
   28        0.862   1.715   0.000   2.577
   29        0.862   1.715   0.000   2.577
   30        0.862   1.715   0.000   2.577
   31        0.862   1.715   0.000   2.577
   32        0.862   1.715   0.000   2.577
   33        0.866   1.781   0.000   2.647
   34        0.866   1.781   0.000   2.647
   35        0.866   1.781   0.000   2.647
   36        0.866   1.781   0.000   2.647
   37        0.866   1.781   0.000   2.647
   38        0.866   1.781   0.000   2.647
   39        0.866   1.781   0.000   2.647
   40        0.866   1.781   0.000   2.647
   41        0.866   1.781   0.000   2.647
   42        0.866   1.781   0.000   2.647
   43        0.866   1.781   0.000   2.647
   44        0.866   1.781   0.000   2.647
   45        0.866   1.781   0.000   2.647
   46        0.866   1.781   0.000   2.647
   47        0.866   1.781   0.000   2.647
   48        0.866   1.781   0.000   2.647
   49        0.870   1.764   0.000   2.634
   50        0.870   1.764   0.000   2.634
   51        0.870   1.764   0.000   2.634
   52        0.870   1.764   0.000   2.634
   53        0.870   1.764   0.000   2.634
   54        0.870   1.764   0.000   2.634
   55        0.870   1.764   0.000   2.634
   56        0.870   1.764   0.000   2.634
   57        0.870   1.764   0.000   2.634
   58        0.870   1.764   0.000   2.634
   59        0.870   1.764   0.000   2.634
   60        0.870   1.764   0.000   2.634
   61        0.870   1.764   0.000   2.634
   62        0.870   1.764   0.000   2.634
   63        0.870   1.764   0.000   2.634
   64        0.870   1.764   0.000   2.634
   65        0.843   1.784   0.000   2.627
   66        0.843   1.783   0.000   2.626
   67        0.843   1.784   0.000   2.627
   68        0.843   1.783   0.000   2.626
   69        0.843   1.783   0.000   2.626
   70        0.843   1.784   0.000   2.627
   71        0.843   1.784   0.000   2.627
   72        0.843   1.783   0.000   2.627
   73        0.866   1.795   0.000   2.661
   74        0.866   1.795   0.000   2.661
   75        0.866   1.795   0.000   2.661
   76        0.866   1.795   0.000   2.661
   77        0.866   1.795   0.000   2.661
   78        0.866   1.795   0.000   2.661
   79        0.866   1.795   0.000   2.661
   80        0.866   1.795   0.000   2.661
   81        0.392   0.493   7.135   8.021
   82        0.392   0.493   7.135   8.021
   83        0.392   0.493   7.135   8.021
   84        0.393   0.494   7.135   8.021
   85        0.637   0.048   0.000   0.686
   86        0.637   0.048   0.000   0.686
   87        0.637   0.048   0.000   0.686
   88        0.637   0.048   0.000   0.685
   89        0.637   0.048   0.000   0.686
   90        0.637   0.048   0.000   0.686
   91        0.637   0.048   0.000   0.686
   92        0.637   0.048   0.000   0.686
   93        0.638   0.048   0.000   0.686
   94        0.637   0.048   0.000   0.686
   95        0.637   0.048   0.000   0.685
   96        0.637   0.048   0.000   0.686
   97        0.637   0.048   0.000   0.686
   98        0.637   0.048   0.000   0.686
   99        0.637   0.048   0.000   0.685
  100        0.637   0.048   0.000   0.685
  101        0.638   0.049   0.000   0.688
  102        0.638   0.049   0.000   0.688
  103        0.637   0.049   0.000   0.687
  104        0.637   0.050   0.000   0.687
  105        0.638   0.049   0.000   0.688
  106        0.637   0.050   0.000   0.687
  107        0.637   0.049   0.000   0.687
  108        0.638   0.049   0.000   0.688
  109        0.637   0.049   0.000   0.687
  110        0.637   0.049   0.000   0.687
  111        0.638   0.049   0.000   0.688
  112        0.638   0.049   0.000   0.688
  113        0.637   0.050   0.000   0.687
  114        0.638   0.049   0.000   0.688
  115        0.638   0.050   0.000   0.688
  116        0.637   0.050   0.000   0.687
  117        1.234   2.602   0.000   3.836
  118        1.234   2.603   0.000   3.837
  119        1.234   2.601   0.000   3.835
  120        1.234   2.602   0.000   3.836
  121        1.234   2.603   0.000   3.837
  122        1.234   2.603   0.000   3.837
  123        1.234   2.603   0.000   3.837
  124        1.234   2.602   0.000   3.836
  125        1.234   2.603   0.000   3.837
  126        1.234   2.602   0.000   3.836
  127        1.234   2.603   0.000   3.837
  128        1.234   2.604   0.000   3.838
  129        1.234   2.603   0.000   3.837
  130        1.234   2.602   0.000   3.836
  131        1.234   2.602   0.000   3.836
  132        1.234   2.602   0.000   3.836
  133        1.209   2.712   0.000   3.921
  134        1.209   2.712   0.000   3.921
  135        1.209   2.712   0.000   3.922
  136        1.209   2.712   0.000   3.921
  137        1.209   2.712   0.000   3.921
  138        1.209   2.712   0.000   3.921
  139        1.209   2.713   0.000   3.922
  140        1.209   2.712   0.000   3.921
  141        1.586   3.537   0.000   5.124
  142        1.586   3.537   0.000   5.123
  143        1.586   3.537   0.000   5.123
  144        1.586   3.537   0.000   5.123
  145        1.586   3.537   0.000   5.123
  146        1.586   3.537   0.000   5.124
  147        1.586   3.537   0.000   5.123
  148        1.586   3.537   0.000   5.124
  149        1.586   3.537   0.000   5.124
  150        1.586   3.537   0.000   5.123
  151        1.586   3.537   0.000   5.123
  152        1.586   3.537   0.000   5.123
  153        1.586   3.537   0.000   5.124
  154        1.586   3.537   0.000   5.124
  155        1.586   3.537   0.000   5.124
  156        1.586   3.537   0.000   5.123
--------------------------------------------------
tot        145.872 264.544  28.541 438.957
 


 magnetization (x)
 
# of ion       s       p       d       tot
------------------------------------------
    1        0.002   0.011   0.000   0.014
    2        0.003   0.011   0.000   0.014
    3        0.002   0.011   0.000   0.014
    4       -0.002  -0.011   0.000  -0.014
    5       -0.003  -0.011   0.000  -0.014
    6        0.003   0.011   0.000   0.014
    7       -0.003  -0.011   0.000  -0.014
    8       -0.002  -0.011   0.000  -0.014
    9       -0.003  -0.012   0.000  -0.014
   10        0.002   0.011   0.000   0.014
   11        0.003   0.012   0.000   0.014
   12       -0.003  -0.011   0.000  -0.014
   13        0.003   0.011   0.000   0.014
   14        0.002   0.011   0.000   0.014
   15       -0.002  -0.011   0.000  -0.014
   16       -0.002  -0.011   0.000  -0.014
   17        0.000   0.001   0.000   0.001
   18        0.000   0.001   0.000   0.001
   19        0.000   0.001   0.000   0.001
   20       -0.000  -0.001   0.000  -0.001
   21       -0.000  -0.001   0.000  -0.001
   22        0.000   0.001   0.000   0.001
   23       -0.000  -0.001   0.000  -0.001
   24       -0.000  -0.001   0.000  -0.001
   25       -0.000  -0.001   0.000  -0.001
   26        0.000   0.001   0.000   0.001
   27        0.000   0.001   0.000   0.001
   28       -0.000  -0.001   0.000  -0.001
   29        0.000   0.001   0.000   0.001
   30        0.000   0.001   0.000   0.001
   31       -0.000  -0.001   0.000  -0.001
   32       -0.000  -0.001   0.000  -0.001
   33       -0.000  -0.000   0.000  -0.000
   34       -0.000  -0.000   0.000  -0.000
   35       -0.000  -0.000   0.000  -0.000
   36        0.000   0.000   0.000   0.000
   37        0.000   0.000   0.000   0.000
   38       -0.000  -0.000   0.000  -0.000
   39        0.000   0.000   0.000   0.000
   40        0.000   0.000   0.000   0.000
   41        0.000   0.000   0.000   0.000
   42       -0.000  -0.000   0.000  -0.000
   43       -0.000  -0.000   0.000  -0.000
   44        0.000   0.000   0.000   0.000
   45       -0.000  -0.000   0.000  -0.000
   46       -0.000  -0.000   0.000  -0.000
   47        0.000   0.000   0.000   0.000
   48        0.000   0.000   0.000   0.000
   49        0.000   0.000   0.000   0.000
   50        0.000   0.000   0.000   0.000
   51        0.000   0.000   0.000   0.000
   52       -0.000  -0.000   0.000  -0.000
   53       -0.000  -0.000   0.000  -0.000
   54        0.000   0.000   0.000   0.000
   55       -0.000  -0.000   0.000  -0.000
   56       -0.000  -0.000   0.000  -0.000
   57       -0.000  -0.000   0.000  -0.000
   58        0.000   0.000   0.000   0.000
   59        0.000   0.000   0.000   0.000
   60       -0.000  -0.000   0.000  -0.000
   61        0.000   0.000   0.000   0.000
   62        0.000   0.000   0.000   0.000
   63       -0.000  -0.000   0.000  -0.000
   64       -0.000  -0.000   0.000  -0.000
   65        0.002   0.008   0.000   0.010
   66        0.002   0.008   0.000   0.010
   67       -0.002  -0.008   0.000  -0.010
   68       -0.002  -0.008   0.000  -0.010
   69        0.002   0.008   0.000   0.010
   70       -0.002  -0.008   0.000  -0.010
   71        0.002   0.008   0.000   0.010
   72       -0.002  -0.008   0.000  -0.010
   73        0.000   0.000   0.000   0.000
   74        0.000   0.000   0.000   0.000
   75       -0.000  -0.000   0.000  -0.000
   76       -0.000  -0.000   0.000  -0.000
   77        0.000   0.000   0.000   0.000
   78       -0.000  -0.000   0.000  -0.000
   79        0.000   0.000   0.000   0.000
   80       -0.000  -0.000   0.000  -0.000
   81        0.011   0.081   2.365   2.457
   82        0.011   0.081   2.364   2.457
   83       -0.011  -0.081  -2.365  -2.457
   84       -0.011  -0.081  -2.364  -2.457
   85        0.000  -0.000   0.000   0.000
   86        0.000  -0.000   0.000   0.000
   87        0.000  -0.000   0.000   0.000
   88       -0.000   0.000   0.000  -0.000
   89       -0.000   0.000   0.000  -0.000
   90        0.000  -0.000   0.000   0.000
   91       -0.000   0.000   0.000  -0.000
   92       -0.000   0.000   0.000  -0.000
   93       -0.000   0.000   0.000  -0.000
   94        0.000  -0.000   0.000   0.000
   95        0.000  -0.000   0.000   0.000
   96       -0.000   0.000   0.000  -0.000
   97        0.000  -0.000   0.000   0.000
   98        0.000  -0.000   0.000   0.000
   99       -0.000   0.000   0.000  -0.000
  100       -0.000   0.000   0.000  -0.000
  101       -0.001  -0.000   0.000  -0.001
  102       -0.001  -0.000   0.000  -0.001
  103       -0.001  -0.000   0.000  -0.001
  104        0.001   0.000   0.000   0.001
  105        0.001   0.000   0.000   0.001
  106       -0.001  -0.000   0.000  -0.001
  107        0.001   0.000   0.000   0.001
  108        0.001   0.000   0.000   0.001
  109        0.001   0.000   0.000   0.001
  110       -0.001  -0.000   0.000  -0.001
  111       -0.001  -0.000   0.000  -0.001
  112        0.001   0.000   0.000   0.001
  113       -0.001  -0.000   0.000  -0.001
  114       -0.001  -0.000   0.000  -0.001
  115        0.001   0.000   0.000   0.001
  116        0.001   0.000   0.000   0.001
  117        0.013   0.044   0.000   0.057
  118        0.013   0.044   0.000   0.056
  119        0.013   0.044   0.000   0.057
  120       -0.013  -0.044   0.000  -0.057
  121       -0.013  -0.044   0.000  -0.057
  122        0.013   0.044   0.000   0.057
  123       -0.013  -0.044   0.000  -0.056
  124       -0.013  -0.044   0.000  -0.057
  125       -0.013  -0.044   0.000  -0.056
  126        0.013   0.044   0.000   0.057
  127        0.013   0.044   0.000   0.057
  128       -0.013  -0.044   0.000  -0.057
  129        0.013   0.044   0.000   0.057
  130        0.013   0.044   0.000   0.057
  131       -0.013  -0.044   0.000  -0.057
  132       -0.013  -0.044   0.000  -0.057
  133        0.000   0.001   0.000   0.001
  134        0.000   0.001   0.000   0.001
  135       -0.000  -0.001   0.000  -0.001
  136       -0.000  -0.001   0.000  -0.001
  137        0.000   0.001   0.000   0.001
  138       -0.000  -0.001   0.000  -0.001
  139        0.000   0.001   0.000   0.001
  140       -0.000  -0.001   0.000  -0.001
  141        0.000   0.001   0.000   0.001
  142        0.000   0.001   0.000   0.001
  143        0.000   0.001   0.000   0.001
  144       -0.000  -0.001   0.000  -0.001
  145       -0.000  -0.001   0.000  -0.001
  146        0.000   0.001   0.000   0.001
  147       -0.000  -0.001   0.000  -0.001
  148       -0.000  -0.001   0.000  -0.001
  149       -0.000  -0.001   0.000  -0.001
  150        0.000   0.001   0.000   0.001
  151        0.000   0.001   0.000   0.001
  152       -0.000  -0.001   0.000  -0.001
  153        0.000   0.001   0.000   0.001
  154        0.000   0.001   0.000   0.001
  155       -0.000  -0.001   0.000  -0.001
  156       -0.000  -0.001   0.000  -0.001
--------------------------------------------------
tot         -0.000  -0.000   0.000  -0.000
 

 total amount of memory used by VASP MPI-rank0   108919. kBytes
=======================================================================

   base      :      30000. kBytes
   nonlr-proj:       6239. kBytes
   fftplans  :      11254. kBytes
   grid      :      31214. kBytes
   one-center:       1213. kBytes
   wavefun   :      28999. kBytes
 
  
  
 General timing and accounting informations for this job:
 ========================================================
  
                  Total CPU time used (sec):     1030.585
                            User time (sec):      916.938
                          System time (sec):      113.648
                         Elapsed time (sec):     1051.294
  
                   Maximum memory used (kb):      961448.
                   Average memory used (kb):           0.
  
                          Minor page faults:       184046
                          Major page faults:            7
                 Voluntary context switches:        42786
