       N       E                     dE             d eps       ncg     rms          rms(c)
RMM:   1     0.653594110911E+04    0.65359E+04   -0.25985E+05  2800   0.136E+03
RMM:   2     0.231104488763E+04   -0.42249E+04   -0.66958E+04  2800   0.307E+02
RMM:   3     0.214359906988E+03   -0.20967E+04   -0.25149E+04  2800   0.179E+02
RMM:   4    -0.740683989333E+03   -0.95504E+03   -0.91780E+03  2800   0.136E+02
RMM:   5    -0.106821878248E+04   -0.32753E+03   -0.29290E+03  2800   0.784E+01
RMM:   6    -0.117683431804E+04   -0.10862E+03   -0.95872E+02  2800   0.479E+01
RMM:   7    -0.121446256787E+04   -0.37628E+02   -0.34106E+02  2800   0.280E+01
RMM:   8    -0.122826360228E+04   -0.13801E+02   -0.12363E+02  2800   0.184E+01
RMM:   9    -0.123742762201E+04   -0.91640E+01   -0.86718E+01  7311   0.111E+01
RMM:  10    -0.123771392517E+04   -0.28630E+00   -0.33873E+00  7130   0.243E+00
RMM:  11    -0.123774458056E+04   -0.30655E-01   -0.28984E-01  7239   0.611E-01
RMM:  12    -0.123774526522E+04   -0.68466E-03   -0.95697E-03  7231   0.122E-01    0.575E+01
RMM:  13    -0.116638952376E+04    0.71356E+02   -0.15662E+02  5600   0.162E+01    0.320E+01
RMM:  14    -0.115208800695E+04    0.14302E+02   -0.42286E+01  5600   0.840E+00    0.149E+01
RMM:  15    -0.115085617603E+04    0.12318E+01   -0.10333E+01  5600   0.448E+00    0.501E+00
RMM:  16    -0.115074287088E+04    0.11331E+00   -0.75125E-01  5719   0.142E+00    0.137E+00
RMM:  17    -0.115075440727E+04   -0.11536E-01   -0.15872E-01  5649   0.666E-01    0.441E-01
RMM:  18    -0.115075692573E+04   -0.25185E-02   -0.27185E-02  5625   0.245E-01    0.214E-01
RMM:  19    -0.115076011988E+04   -0.31942E-02   -0.65690E-03  5775   0.116E-01    0.106E-01
RMM:  20    -0.115076181274E+04   -0.16929E-02   -0.29439E-03  5618   0.761E-02    0.726E-02
RMM:  21    -0.115076246673E+04   -0.65399E-03   -0.13956E-03  5619   0.489E-02    0.328E-02
RMM:  22    -0.115076269794E+04   -0.23121E-03   -0.30336E-04  5601   0.242E-02    0.155E-02
RMM:  23    -0.115076282206E+04   -0.12411E-03   -0.10731E-04  5605   0.128E-02    0.872E-03
RMM:  24    -0.115076288319E+04   -0.61135E-04   -0.25333E-05  5213   0.598E-03    0.409E-03
RMM:  25    -0.115076290345E+04   -0.20253E-04   -0.95445E-06  4846   0.350E-03    0.250E-03
RMM:  26    -0.115076290556E+04   -0.21158E-05   -0.21749E-06  3697   0.177E-03    0.102E-03
RMM:  27    -0.115076290597E+04   -0.40513E-06   -0.67427E-07  3443   0.105E-03
   1 F= -.11629615E+04 E0= -.11629615E+04  d E =-.116296E+04
