 vasp.6.0.8 29Jun18 (build Mar 14 2019 11:44:20) complex                        
  
 executed on             LinuxIFC date 2021.01.07  10:51:11
 running   64 mpi-ranks, with    1 threads/rank
 distrk:  each k-point on   64 cores,    1 groups
 distr:  one band on NCORES_PER_BAND=   4 cores,   16 groups


--------------------------------------------------------------------------------------------------------


 INCAR:
 POTCAR:    PAW_PBE C 08Apr2002                   
 POTCAR:    PAW_PBE Zn 06Sep2000                  
 POTCAR:    PAW_PBE H 15Jun2001                   
 POTCAR:    PAW_PBE N 08Apr2002                   
 POTCAR:    PAW_PBE O 08Apr2002                   
 POTCAR:    PAW_PBE C 08Apr2002                   
   VRHFIN =C: s2p2                                                              
   LEXCH  = PE                                                                  
   EATOM  =   147.1560 eV,   10.8157 Ry                                         
                                                                                
   TITEL  = PAW_PBE C 08Apr2002                                                 
   LULTRA =        F    use ultrasoft PP ?                                      
   IUNSCR =        1    unscreen: 0-lin 1-nonlin 2-no                           
   RPACOR =    1.200    partial core radius                                     
   POMASS =   12.011; ZVAL   =    4.000    mass and valenz                      
   RCORE  =    1.500    outmost cutoff radius                                   
   RWIGS  =    1.630; RWIGS  =    0.863    wigner-seitz radius (au A)           
   ENMAX  =  400.000; ENMIN  =  300.000 eV                                      
   ICORE  =        2    local potential                                         
   LCOR   =        T    correct aug charges                                     
   LPAW   =        T    paw PP                                                  
   EAUG   =  644.873                                                            
   DEXC   =    0.000                                                            
   RMAX   =    1.529    core radius for proj-oper                               
   RAUG   =    1.300    factor for augmentation sphere                          
   RDEP   =    1.501    radius for radial grids                                 
   RDEPT  =    1.300    core radius for aug-charge                              
                                                                                
   Atomic configuration                                                         
    4 entries                                                                   
     n  l   j            E        occ.                                          
     1  0  0.50      -273.3789   2.0000                                         
     2  0  0.50       -13.7508   2.0000                                         
     2  1  0.50        -5.2854   2.0000                                         
     3  2  1.50        -5.4423   0.0000                                         
   Description                                                                  
     l       E           TYP  RCUT    TYP  RCUT                                 
     0    -13.7508458     23  1.200                                             
     0     -8.2022199     23  1.200                                             
     1     -5.2854383     23  1.500                                             
     1     34.0145650     23  1.500                                             
     2     -5.4423304      7  1.500                                             
  local pseudopotential read in
  partial core-charges read in
  partial kinetic energy density read in
  atomic valenz-charges read in
  non local Contribution for L=           0  read in
    real space projection operators read in
  non local Contribution for L=           0  read in
    real space projection operators read in
  non local Contribution for L=           1  read in
    real space projection operators read in
  non local Contribution for L=           1  read in
    real space projection operators read in
    PAW grid and wavefunctions read in
 
   number of l-projection  operators is LMAX  =           4
   number of lm-projection operators is LMMAX =           8
 
 POTCAR:    PAW_PBE Zn 06Sep2000                  
   VRHFIN =Zn: d10 p2                                                           
   LEXCH  = PE                                                                  
   EATOM  =  1748.8345 eV,  128.5357 Ry                                         
                                                                                
   TITEL  = PAW_PBE Zn 06Sep2000                                                
   LULTRA =        F    use ultrasoft PP ?                                      
   IUNSCR =        1    unscreen: 0-lin 1-nonlin 2-no                           
   RPACOR =    2.000    partial core radius                                     
   POMASS =   65.390; ZVAL   =   12.000    mass and valenz                      
   RCORE  =    2.300    outmost cutoff radius                                   
   RWIGS  =    2.400; RWIGS  =    1.270    wigner-seitz radius (au A)           
   ENMAX  =  276.723; ENMIN  =  207.542 eV                                      
   RCLOC  =    1.828    cutoff for local pot                                    
   LCOR   =        T    correct aug charges                                     
   LPAW   =        T    paw PP                                                  
   EAUG   =  575.892                                                            
   DEXC   =    0.000                                                            
   RMAX   =    2.347    core radius for proj-oper                               
   RAUG   =    1.300    factor for augmentation sphere                          
   RDEP   =    2.324    radius for radial grids                                 
   RDEPT  =    1.788    core radius for aug-charge                              
                                                                                
   Atomic configuration                                                         
    9 entries                                                                   
     n  l   j            E        occ.                                          
     1  0  0.50     -9524.6913   2.0000                                         
     2  0  0.50     -1158.1882   2.0000                                         
     2  1  1.50     -1003.8506   6.0000                                         
     3  0  0.50      -129.2194   2.0000                                         
     3  1  1.50       -83.3890   6.0000                                         
     3  2  2.50       -10.1410  10.0000                                         
     4  0  0.50        -5.9785   2.0000                                         
     4  1  0.50        -4.0817   0.0000                                         
     4  3  2.50        -1.3606   0.0000                                         
   Description                                                                  
     l       E           TYP  RCUT    TYP  RCUT                                 
     2    -10.1410010     23  2.300                                             
     2    -11.5015836     23  2.300                                             
     0     -5.9785163     23  2.300                                             
     0      1.1858015     23  2.300                                             
     1     -2.7211652     23  2.300                                             
     1     13.2444212     23  2.300                                             
  local pseudopotential read in
  partial core-charges read in
  partial kinetic energy density read in
  atomic valenz-charges read in
  non local Contribution for L=           2  read in
    real space projection operators read in
  non local Contribution for L=           2  read in
    real space projection operators read in
  non local Contribution for L=           0  read in
    real space projection operators read in
  non local Contribution for L=           0  read in
    real space projection operators read in
  non local Contribution for L=           1  read in
    real space projection operators read in
  non local Contribution for L=           1  read in
    real space projection operators read in
    PAW grid and wavefunctions read in
 
   number of l-projection  operators is LMAX  =           6
   number of lm-projection operators is LMMAX =          18
 
 POTCAR:    PAW_PBE H 15Jun2001                   
   VRHFIN =H: ultrasoft test                                                    
   LEXCH  = PE                                                                  
   EATOM  =    12.4884 eV,    0.9179 Ry                                         
                                                                                
   TITEL  = PAW_PBE H 15Jun2001                                                 
   LULTRA =        F    use ultrasoft PP ?                                      
   IUNSCR =        0    unscreen: 0-lin 1-nonlin 2-no                           
   RPACOR =    0.000    partial core radius                                     
   POMASS =    1.000; ZVAL   =    1.000    mass and valenz                      
   RCORE  =    1.100    outmost cutoff radius                                   
   RWIGS  =    0.700; RWIGS  =    0.370    wigner-seitz radius (au A)           
   ENMAX  =  250.000; ENMIN  =  200.000 eV                                      
   RCLOC  =    0.701    cutoff for local pot                                    
   LCOR   =        T    correct aug charges                                     
   LPAW   =        T    paw PP                                                  
   EAUG   =  400.000                                                            
   RMAX   =    1.123    core radius for proj-oper                               
   RAUG   =    1.200    factor for augmentation sphere                          
   RDEP   =    1.112    radius for radial grids                                 
   RDEPT  =    0.926    core radius for aug-charge                              
                                                                                
   Atomic configuration                                                         
    2 entries                                                                   
     n  l   j            E        occ.                                          
     1  0  0.50        -6.4927   1.0000                                         
     2  1  0.50        -3.4015   0.0000                                         
   Description                                                                  
     l       E           TYP  RCUT    TYP  RCUT                                 
     0     -6.4927494     23  1.100                                             
     0      6.8029130     23  1.100                                             
     1     -4.0817478     23  1.100                                             
  local pseudopotential read in
  atomic valenz-charges read in
  non local Contribution for L=           0  read in
    real space projection operators read in
  non local Contribution for L=           0  read in
    real space projection operators read in
  non local Contribution for L=           1  read in
    real space projection operators read in
    PAW grid and wavefunctions read in
 
   number of l-projection  operators is LMAX  =           3
   number of lm-projection operators is LMMAX =           5
 
 POTCAR:    PAW_PBE N 08Apr2002                   
   VRHFIN =N: s2p3                                                              
   LEXCH  = PE                                                                  
   EATOM  =   264.5486 eV,   19.4438 Ry                                         
                                                                                
   TITEL  = PAW_PBE N 08Apr2002                                                 
   LULTRA =        F    use ultrasoft PP ?                                      
   IUNSCR =        1    unscreen: 0-lin 1-nonlin 2-no                           
   RPACOR =    1.200    partial core radius                                     
   POMASS =   14.001; ZVAL   =    5.000    mass and valenz                      
   RCORE  =    1.500    outmost cutoff radius                                   
   RWIGS  =    1.400; RWIGS  =    0.741    wigner-seitz radius (au A)           
   ENMAX  =  400.000; ENMIN  =  300.000 eV                                      
   ICORE  =        2    local potential                                         
   LCOR   =        T    correct aug charges                                     
   LPAW   =        T    paw PP                                                  
   EAUG   =  627.112                                                            
   DEXC   =    0.000                                                            
   RMAX   =    1.529    core radius for proj-oper                               
   RAUG   =    1.300    factor for augmentation sphere                          
   RDEP   =    1.514    radius for radial grids                                 
   RDEPT  =    1.338    core radius for aug-charge                              
                                                                                
   Atomic configuration                                                         
    4 entries                                                                   
     n  l   j            E        occ.                                          
     1  0  0.50      -384.7179   2.0000                                         
     2  0  0.50       -18.5828   2.0000                                         
     2  1  0.50        -7.0898   3.0000                                         
     3  2  1.50        -6.8029   0.0000                                         
   Description                                                                  
     l       E           TYP  RCUT    TYP  RCUT                                 
     0    -18.5828119     23  1.200                                             
     0    -13.5018863     23  1.200                                             
     1     -7.0897853     23  1.500                                             
     1      9.5240782     23  1.500                                             
     2     -6.8029130      7  1.500                                             
  local pseudopotential read in
  partial core-charges read in
  partial kinetic energy density read in
  atomic valenz-charges read in
  non local Contribution for L=           0  read in
    real space projection operators read in
  non local Contribution for L=           0  read in
    real space projection operators read in
  non local Contribution for L=           1  read in
    real space projection operators read in
  non local Contribution for L=           1  read in
    real space projection operators read in
    PAW grid and wavefunctions read in
 
   number of l-projection  operators is LMAX  =           4
   number of lm-projection operators is LMMAX =           8
 
 POTCAR:    PAW_PBE O 08Apr2002                   
   VRHFIN =O: s2p4                                                              
   LEXCH  = PE                                                                  
   EATOM  =   432.3788 eV,   31.7789 Ry                                         
                                                                                
   TITEL  = PAW_PBE O 08Apr2002                                                 
   LULTRA =        F    use ultrasoft PP ?                                      
   IUNSCR =        1    unscreen: 0-lin 1-nonlin 2-no                           
   RPACOR =    1.200    partial core radius                                     
   POMASS =   16.000; ZVAL   =    6.000    mass and valenz                      
   RCORE  =    1.520    outmost cutoff radius                                   
   RWIGS  =    1.550; RWIGS  =    0.820    wigner-seitz radius (au A)           
   ENMAX  =  400.000; ENMIN  =  300.000 eV                                      
   ICORE  =        2    local potential                                         
   LCOR   =        T    correct aug charges                                     
   LPAW   =        T    paw PP                                                  
   EAUG   =  605.392                                                            
   DEXC   =    0.000                                                            
   RMAX   =    1.553    core radius for proj-oper                               
   RAUG   =    1.300    factor for augmentation sphere                          
   RDEP   =    1.550    radius for radial grids                                 
   RDEPT  =    1.329    core radius for aug-charge                              
                                                                                
   Atomic configuration                                                         
    4 entries                                                                   
     n  l   j            E        occ.                                          
     1  0  0.50      -514.6923   2.0000                                         
     2  0  0.50       -23.9615   2.0000                                         
     2  1  0.50        -9.0305   4.0000                                         
     3  2  1.50        -9.5241   0.0000                                         
   Description                                                                  
     l       E           TYP  RCUT    TYP  RCUT                                 
     0    -23.9615318     23  1.200                                             
     0     -9.5240782     23  1.200                                             
     1     -9.0304911     23  1.520                                             
     1      8.1634956     23  1.520                                             
     2     -9.5240782      7  1.500                                             
  local pseudopotential read in
  partial core-charges read in
  partial kinetic energy density read in
  kinetic energy density of atom read in
  atomic valenz-charges read in
  non local Contribution for L=           0  read in
    real space projection operators read in
  non local Contribution for L=           0  read in
    real space projection operators read in
  non local Contribution for L=           1  read in
    real space projection operators read in
  non local Contribution for L=           1  read in
    real space projection operators read in
    PAW grid and wavefunctions read in
 
   number of l-projection  operators is LMAX  =           4
   number of lm-projection operators is LMMAX =           8
 
 Optimization of the real space projectors (new method)

 maximal supplied QI-value         = 25.13
 optimisation between [QCUT,QGAM] = [ 12.32, 24.88] = [ 42.47,173.37] Ry 
 Optimized for a Real-space Cutoff    1.06 Angstroem

   l    n(q)    QCUT    max X(q) W(low)/X(q) W(high)/X(q)  e(spline) 
   0      8    12.315   115.676    0.34E-03    0.18E-03    0.23E-06
   0      8    12.315    87.132    0.34E-03    0.18E-03    0.22E-06
   1      7    12.315     4.429    0.45E-03    0.12E-03    0.18E-06
   1      7    12.315     2.733    0.35E-03    0.97E-04    0.15E-06
 Optimization of the real space projectors (new method)

 maximal supplied QI-value         = 16.25
 optimisation between [QCUT,QGAM] = [ 12.51, 25.03] = [ 43.85,175.40] Ry 
 Optimized for a Real-space Cutoff    1.31 Angstroem

   l    n(q)    QCUT    max X(q) W(low)/X(q) W(high)/X(q)  e(spline) 
   2      9    12.514    46.356    0.36E-03    0.54E-03    0.48E-06
   2      9    12.514    41.843    0.37E-03    0.56E-03    0.49E-06
   0     10    12.514    48.958    0.13E-03    0.28E-03    0.23E-06
   0     10    12.514    32.776    0.12E-03    0.26E-03    0.22E-06
   1      9    12.514    17.787    0.44E-03    0.44E-04    0.36E-06
   1      9    12.514    14.435    0.39E-03    0.39E-04    0.32E-06
 Optimization of the real space projectors (new method)

 maximal supplied QI-value         = 34.20
 optimisation between [QCUT,QGAM] = [ 12.31, 24.97] = [ 42.46,174.58] Ry 
 Optimized for a Real-space Cutoff    1.00 Angstroem

   l    n(q)    QCUT    max X(q) W(low)/X(q) W(high)/X(q)  e(spline) 
   0      7    12.313    19.460    0.14E-03    0.42E-03    0.16E-06
   0      7    12.313    12.209    0.12E-03    0.40E-03    0.16E-06
   1      7    12.313     4.655    0.33E-03    0.59E-03    0.89E-07
 Optimization of the real space projectors (new method)

 maximal supplied QI-value         = 25.13
 optimisation between [QCUT,QGAM] = [ 12.32, 24.88] = [ 42.47,173.37] Ry 
 Optimized for a Real-space Cutoff    1.20 Angstroem

   l    n(q)    QCUT    max X(q) W(low)/X(q) W(high)/X(q)  e(spline) 
   0      9    12.315    79.467    0.14E-03    0.22E-04    0.37E-06
   0      9    12.315    66.151    0.14E-03    0.23E-04    0.36E-06
   1      8    12.315    22.077    0.30E-03    0.54E-03    0.45E-06
   1      8    12.315    15.894    0.30E-03    0.55E-03    0.45E-06
 Optimization of the real space projectors (new method)

 maximal supplied QI-value         = 24.76
 optimisation between [QCUT,QGAM] = [ 12.38, 25.00] = [ 42.90,175.06] Ry 
 Optimized for a Real-space Cutoff    1.13 Angstroem

   l    n(q)    QCUT    max X(q) W(low)/X(q) W(high)/X(q)  e(spline) 
   0      8    12.378    20.381    0.16E-03    0.54E-05    0.27E-06
   0      8    12.378    15.268    0.17E-03    0.61E-05    0.29E-06
   1      8    12.378     5.964    0.38E-03    0.23E-03    0.28E-06
   1      8    12.378     5.382    0.33E-03    0.20E-03    0.25E-06
  PAW_PBE C 08Apr2002                   :
 energy of atom  1       EATOM= -147.1560
 kinetic energy error for atom=    0.0057 (will be added to EATOM!!)
  PAW_PBE Zn 06Sep2000                  :
 energy of atom  2       EATOM=-1748.8345
 kinetic energy error for atom=    0.0020 (will be added to EATOM!!)
  PAW_PBE H 15Jun2001                   :
 energy of atom  3       EATOM=  -12.4884
 kinetic energy error for atom=    0.0004 (will be added to EATOM!!)
  PAW_PBE N 08Apr2002                   :
 energy of atom  4       EATOM= -264.5486
 kinetic energy error for atom=    0.0103 (will be added to EATOM!!)
  PAW_PBE O 08Apr2002                   :
 energy of atom  5       EATOM= -432.3788
 kinetic energy error for atom=    0.0168 (will be added to EATOM!!)
 
 
 POSCAR: Zn_H
  positions in direct lattice
  velocities in cartesian coordinates
 exchange correlation table for  LEXCH =        8
   RHO(1)=    0.500       N(1)  =     2000
   RHO(2)=  100.500       N(2)  =     4000
 


--------------------------------------------------------------------------------------------------------


 ion  position               nearest neighbor table
   1  0.902  0.957  0.146- 107 1.08 117 1.34  65 1.40
   2  0.798  0.952  0.429- 112 1.09 118 1.35  65 1.40
   3  0.903  0.798  0.899- 116 1.08 119 1.34  66 1.40
   4  0.598  0.457  0.646- 110 1.08 120 1.34  67 1.40
   5  0.701  0.304  0.116- 111 1.09 121 1.35  68 1.40
   6  0.200  0.804  0.117- 115 1.09 122 1.35  69 1.40
   7  0.702  0.452  0.928- 101 1.09 123 1.35  67 1.40
   8  0.597  0.298  0.399- 113 1.08 124 1.34  68 1.40
   9  0.300  0.452  0.428- 114 1.09 125 1.35  70 1.40
  10  0.096  0.798  0.399- 104 1.08 126 1.34  69 1.40
  11  0.199  0.952  0.929- 105 1.09 127 1.35  71 1.40
  12  0.300  0.304  0.616- 102 1.09 128 1.35  72 1.40
  13  0.799  0.804  0.617- 108 1.09 129 1.35  66 1.40
  14  0.095  0.957  0.646- 109 1.08 130 1.34  71 1.40
  15  0.404  0.298  0.899- 106 1.08 131 1.34  72 1.40
  16  0.404  0.457  0.145- 103 1.08 132 1.34  70 1.40
  17  0.712  0.032  0.141- 141 1.23 133 1.42  33 1.48
  18  0.844  0.050  0.455- 142 1.23 133 1.41  34 1.48
  19  0.845  0.706  0.591- 143 1.23 134 1.41  35 1.48
  20  0.655  0.550  0.954- 144 1.23 135 1.41  36 1.48
  21  0.654  0.206  0.091- 145 1.23 136 1.41  37 1.48
  22  0.285  0.724  0.405- 146 1.23 137 1.42  38 1.48
  23  0.787  0.532  0.640- 147 1.23 135 1.42  39 1.48
  24  0.786  0.224  0.405- 148 1.23 136 1.42  40 1.48
  25  0.215  0.532  0.140- 149 1.23 138 1.42  41 1.48
  26  0.154  0.706  0.091- 150 1.23 137 1.41  42 1.48
  27  0.153  0.050  0.954- 151 1.23 139 1.41  43 1.48
  28  0.346  0.206  0.591- 152 1.23 140 1.41  44 1.48
  29  0.713  0.724  0.905- 153 1.23 134 1.42  45 1.48
  30  0.285  0.032  0.640- 154 1.23 139 1.42  46 1.48
  31  0.214  0.224  0.905- 155 1.23 140 1.42  47 1.48
  32  0.347  0.550  0.454- 156 1.23 138 1.41  48 1.48
  33  0.698  0.077  0.131-  49 1.39  73 1.42  17 1.48
  34  0.825  0.094  0.442-  50 1.39  73 1.42  18 1.48
  35  0.826  0.661  0.604-  51 1.39  74 1.42  19 1.48
  36  0.674  0.594  0.942-  52 1.39  75 1.42  20 1.48
  37  0.673  0.161  0.104-  53 1.39  76 1.42  21 1.48
  38  0.300  0.679  0.415-  54 1.39  77 1.42  22 1.48
  39  0.801  0.577  0.631-  55 1.39  75 1.42  23 1.48
  40  0.800  0.179  0.414-  56 1.39  76 1.42  24 1.48
  41  0.200  0.577  0.130-  57 1.39  78 1.42  25 1.48
  42  0.174  0.661  0.104-  58 1.39  77 1.42  26 1.48
  43  0.173  0.095  0.941-  59 1.39  79 1.42  27 1.48
  44  0.326  0.161  0.604-  60 1.39  80 1.42  28 1.48
  45  0.699  0.679  0.914-  61 1.39  74 1.42  29 1.48
  46  0.299  0.077  0.630-  62 1.39  79 1.42  30 1.48
  47  0.199  0.179  0.915-  63 1.39  80 1.42  31 1.48
  48  0.327  0.595  0.441-  64 1.39  78 1.42  32 1.48
  49  0.631  0.089  0.972-  88 1.09  33 1.39  53 1.41
  50  0.880  0.124  0.586-  99 1.09  34 1.39  56 1.41
  51  0.881  0.631  0.459-  93 1.09  35 1.39  55 1.41
  52  0.619  0.624  0.086-  90 1.09  36 1.39  61 1.41
  53  0.619  0.131  0.959-  98 1.09  37 1.39  49 1.41
  54  0.368  0.667  0.573-  96 1.09  38 1.39  64 1.41
  55  0.869  0.589  0.472-  86 1.09  39 1.39  51 1.41
  56  0.868  0.166  0.573-  87 1.09  40 1.39  50 1.41
  57  0.133  0.589  0.972-  95 1.09  41 1.39  58 1.41
  58  0.119  0.631  0.959-  91 1.09  42 1.39  57 1.41
  59  0.118  0.125  0.086-  92 1.09  43 1.39  63 1.41
  60  0.380  0.131  0.459-  85 1.09  44 1.39  62 1.41
  61  0.632  0.666  0.073-  89 1.09  45 1.39  52 1.41
  62  0.367  0.089  0.472- 100 1.09  46 1.39  60 1.41
  63  0.132  0.167  0.073-  94 1.09  47 1.39  59 1.41
  64  0.381  0.625  0.586-  97 1.09  48 1.39  54 1.41
  65  0.822  0.979  0.295-   1 1.40   2 1.40 133 1.43
  66  0.822  0.777  0.751-   3 1.40  13 1.40 134 1.43
  67  0.678  0.479  0.794-   4 1.40   7 1.40 135 1.43
  68  0.677  0.277  0.250-   8 1.40   5 1.40 136 1.43
  69  0.176  0.777  0.251-  10 1.40   6 1.40 137 1.43
  70  0.324  0.479  0.294-  16 1.40   9 1.40 138 1.43
  71  0.176  0.979  0.794-  14 1.40  11 1.40 139 1.43
  72  0.324  0.277  0.751-  15 1.40  12 1.40 140 1.43
  73  0.756  0.106  0.280-  33 1.42  34 1.42  76 1.43
  74  0.757  0.649  0.766-  45 1.42  35 1.42  75 1.43
  75  0.744  0.606  0.780-  39 1.42  36 1.42  74 1.43
  76  0.743  0.149  0.266-  40 1.42  37 1.42  73 1.43
  77  0.244  0.649  0.266-  38 1.42  42 1.42  78 1.43
  78  0.257  0.607  0.279-  41 1.42  48 1.42  77 1.43
  79  0.243  0.107  0.779-  46 1.42  43 1.42  80 1.43
  80  0.256  0.149  0.766-  47 1.42  44 1.42  79 1.43
  81  0.046  0.878  0.023- 127 1.99 122 1.99 117 2.02 119 2.02
  82  0.952  0.878  0.523- 129 1.99 118 1.99 130 2.02 126 2.02
  83  0.454  0.378  0.522- 125 1.99 128 2.00 124 2.02 120 2.02
  84  0.548  0.378  0.022- 123 1.99 121 2.00 131 2.02 132 2.02
  85  0.434  0.141  0.335-  60 1.09
  86  0.910  0.566  0.359-  55 1.09
  87  0.910  0.190  0.686-  56 1.09
  88  0.589  0.066  0.859-  49 1.09
  89  0.590  0.690  0.186-  61 1.09
  90  0.566  0.614  0.210-  52 1.09
  91  0.066  0.641  0.835-  58 1.09
  92  0.065  0.115  0.210-  59 1.09
  93  0.934  0.641  0.335-  51 1.09
  94  0.090  0.190  0.187-  63 1.09
  95  0.091  0.566  0.858-  57 1.09
  96  0.409  0.690  0.687-  54 1.09
  97  0.435  0.615  0.709-  64 1.09
  98  0.566  0.141  0.835-  53 1.09
  99  0.933  0.114  0.710-  50 1.09
 100  0.409  0.065  0.358-  62 1.09
 101  0.757  0.457  0.067-   7 1.09
 102  0.245  0.299  0.477-  12 1.09
 103  0.445  0.468  0.015-  16 1.08
 104  0.055  0.788  0.530-  10 1.08
 105  0.254  0.957  0.067-  11 1.09
 106  0.445  0.288  0.029-  15 1.08
 107  0.943  0.968  0.016-   1 1.08
 108  0.744  0.799  0.478-  13 1.09
 109  0.054  0.968  0.515-  14 1.08
 110  0.556  0.468  0.515-   4 1.08
 111  0.756  0.299  0.977-   5 1.09
 112  0.743  0.957  0.567-   2 1.09
 113  0.556  0.288  0.529-   8 1.08
 114  0.246  0.457  0.567-   9 1.09
 115  0.255  0.799  0.978-   6 1.09
 116  0.944  0.788  0.030-   3 1.08
 117  0.927  0.920  0.190-   1 1.34 118 1.37  81 2.02
 118  0.862  0.916  0.363-   2 1.35 117 1.37  82 1.99
 119  0.927  0.836  0.856-   3 1.34 129 1.37  81 2.02
 120  0.573  0.420  0.689-   4 1.34 123 1.37  83 2.02
 121  0.637  0.340  0.181-   5 1.35 124 1.37  84 2.00
 122  0.135  0.840  0.182-   6 1.35 126 1.37  81 1.99
 123  0.637  0.416  0.863-   7 1.35 120 1.37  84 1.99
 124  0.573  0.336  0.355-   8 1.34 121 1.37  83 2.02
 125  0.365  0.416  0.363-   9 1.35 132 1.37  83 1.99
 126  0.071  0.836  0.355-  10 1.34 122 1.37  82 2.02
 127  0.135  0.916  0.863-  11 1.35 130 1.37  81 1.99
 128  0.364  0.340  0.681-  12 1.35 131 1.37  83 2.00
 129  0.863  0.840  0.682-  13 1.35 119 1.37  82 1.99
 130  0.071  0.920  0.690-  14 1.34 127 1.37  82 2.02
 131  0.429  0.336  0.855-  15 1.34 128 1.37  84 2.02
 132  0.429  0.420  0.189-  16 1.34 125 1.37  84 2.02
 133  0.786  0.021  0.303-  18 1.41  17 1.42  65 1.43
 134  0.787  0.734  0.742-  19 1.41  29 1.42  66 1.43
 135  0.714  0.521  0.803-  20 1.41  23 1.42  67 1.43
 136  0.713  0.234  0.242-  21 1.41  24 1.42  68 1.43
 137  0.212  0.734  0.243-  26 1.41  22 1.42  69 1.43
 138  0.288  0.522  0.302-  32 1.41  25 1.42  70 1.43
 139  0.211  0.022  0.803-  27 1.41  30 1.42  71 1.43
 140  0.288  0.234  0.742-  28 1.41  31 1.42  72 1.43
 141  0.665  0.005  0.014-  17 1.23
 142  0.909  0.039  0.589-  18 1.23
 143  0.911  0.717  0.456-  19 1.23
 144  0.590  0.539  0.089-  20 1.23
 145  0.589  0.217  0.956-  21 1.23
 146  0.332  0.751  0.533-  22 1.23
 147  0.835  0.505  0.513-  23 1.23
 148  0.834  0.250  0.532-  24 1.23
 149  0.168  0.505  0.013-  25 1.23
 150  0.088  0.717  0.957-  26 1.23
 151  0.088  0.039  0.089-  27 1.23
 152  0.412  0.217  0.456-  28 1.23
 153  0.666  0.750  0.032-  29 1.23
 154  0.332  0.005  0.513-  30 1.23
 155  0.167  0.251  0.033-  31 1.23
 156  0.412  0.539  0.588-  32 1.23
 

IMPORTANT INFORMATION: All symmetrisations will be switched off!
NOSYMM: (Re-)initialisation of all symmetry stuff for point group C_1.


----------------------------------------------------------------------------------------

                                     Primitive cell                                     

  volume of cell :    2198.2441

  direct lattice vectors                    reciprocal lattice vectors
     9.890900925 -0.000114814 -0.000484334     0.101103024 -0.000013757 -0.000016541
     0.004015290 32.719506467 -2.669447742     0.000000473  0.030755568  0.002362662
     0.001046839 -0.525099538  6.835397946     0.000007348  0.012011060  0.147219957

  length of vectors
     9.890900938 32.828220646  6.855537594     0.101103026  0.030846185  0.147709111

  position of ions in fractional coordinates (direct lattice)
     0.902237335  0.957411078  0.146172887
     0.797977925  0.951959543  0.428632375
     0.902822955  0.798403854  0.899338483
     0.597515629  0.457394723  0.645642847
     0.701201959  0.303689148  0.116133302
     0.199709864  0.803783381  0.116706575
     0.701717739  0.451940327  0.928098392
     0.597100177  0.298396643  0.398868404
     0.300485707  0.452094999  0.428143363
     0.095649539  0.798417182  0.399388370
     0.199296767  0.952125041  0.928608777
     0.300151262  0.303747590  0.616217763
     0.798606423  0.803728207  0.616754904
     0.095169594  0.957439725  0.645905283
     0.404213444  0.298400283  0.898894154
     0.404392929  0.457400036  0.145267444
     0.712313419  0.032014160  0.140643928
     0.844412405  0.050133703  0.454740438
     0.845463842  0.705586122  0.590802132
     0.655323944  0.550112548  0.954498278
     0.654379807  0.205551554  0.090543381
     0.285484590  0.723813130  0.405425309
     0.787388451  0.532025651  0.640322779
     0.786451308  0.223670456  0.404659400
     0.214734582  0.532061044  0.139756644
     0.153757163  0.705593597  0.091088167
     0.152889021  0.050308030  0.954263544
     0.346089974  0.205553458  0.590837013
     0.713408237  0.723675936  0.904989585
     0.284969907  0.032053624  0.640151708
     0.214310600  0.223831085  0.905172027
     0.346657050  0.550259370  0.453979577
     0.698470360  0.076679464  0.130901091
     0.825353746  0.094472618  0.441720931
     0.826312913  0.661241615  0.603674404
     0.674331540  0.594456355  0.941550056
     0.673488289  0.161213696  0.103564338
     0.300230260  0.679144177  0.414713089
     0.801306611  0.576696572  0.630768852
     0.800362824  0.179003898  0.414362842
     0.200183865  0.576722683  0.130305370
     0.173642005  0.661260899  0.103743306
     0.172704708  0.094634896  0.941322449
     0.326107778  0.161227653  0.603592662
     0.699399078  0.679003283  0.914488674
     0.299481397  0.076707160  0.630466116
     0.199476624  0.179170538  0.914558035
     0.326903648  0.594593601  0.441211488
     0.631242600  0.089193112  0.972381865
     0.880350540  0.124369200  0.586228483
     0.881129738  0.631349384  0.458910075
     0.619311766  0.624345125  0.086118136
     0.618682750  0.131310215  0.958895401
     0.367881016  0.666658885  0.572977386
     0.868544183  0.589229304  0.472288116
     0.867740267  0.166487090  0.572754462
     0.132649112  0.589200068  0.971931121
     0.119316881  0.631312720  0.958813701
     0.118285021  0.124612675  0.086030170
     0.380478958  0.131256603  0.458783301
     0.631946632  0.666468941  0.072794554
     0.367106442  0.089151753  0.472071043
     0.131783927  0.166722947  0.072881785
     0.381335667  0.624543661  0.586003299
     0.821599033  0.979133307  0.294519442
     0.822447105  0.776593324  0.750985040
     0.678073973  0.479116750  0.794009231
     0.677435732  0.276569902  0.250476406
     0.176160946  0.776644812  0.251056821
     0.324127210  0.479218021  0.293786778
     0.175512920  0.979251619  0.794306841
     0.323706323  0.276620684  0.750629665
     0.755561792  0.106488265  0.279666139
     0.756527055  0.649203575  0.765667141
     0.744178779  0.606491984  0.779586297
     0.743246229  0.149196554  0.265609781
     0.243682044  0.649283774  0.265664798
     0.256807877  0.606573538  0.279310517
     0.242828245  0.106580215  0.779359438
     0.256008136  0.149285187  0.765561546
     0.045796789  0.877956440  0.022756464
     0.952158243  0.877900143  0.522682548
     0.454123124  0.377921544  0.522161945
     0.547568215  0.377888650  0.021928877
     0.433626819  0.141195913  0.335191374
     0.910309139  0.565597046  0.358673282
     0.909610575  0.190122905  0.686227095
     0.589474899  0.065557064  0.858832037
     0.590021292  0.690093413  0.186309888
     0.566228872  0.614339392  0.209591394
     0.066221955  0.641278914  0.835253704
     0.065051944  0.114679023  0.209548024
     0.934018709  0.641368344  0.335304016
     0.090350840  0.190409012  0.186542013
     0.091200281  0.565528550  0.858224755
     0.409319124  0.690322273  0.686714428
     0.434543024  0.614586938  0.709483158
     0.565796530  0.141316302  0.835268357
     0.933363427  0.114375856  0.709777480
     0.408629342  0.065466868  0.358492305
     0.756783118  0.456563646  0.066863477
     0.245148170  0.299052732  0.477383440
     0.445389845  0.467618375  0.014579791
     0.054658145  0.788165438  0.529980419
     0.254306835  0.956817056  0.067429834
     0.445228643  0.288158472  0.029499036
     0.943336914  0.967699434  0.015701795
     0.743564738  0.799033113  0.477967481
     0.054080566  0.967668687  0.515290798
     0.556469298  0.467690599  0.515183486
     0.756223108  0.298974268  0.977308513
     0.742887961  0.956593039  0.567409642
     0.556032987  0.288171352  0.529477682
     0.245559910  0.456805699  0.567039597
     0.254729334  0.799100264  0.977866584
     0.943955740  0.788155044  0.029846076
     0.927000698  0.919699785  0.189872529
     0.862305462  0.915998213  0.363361353
     0.927264966  0.836122416  0.855535196
     0.572797162  0.419678614  0.689287590
     0.637211408  0.339714604  0.181287339
     0.135449910  0.839762230  0.181842404
     0.637467419  0.415975846  0.862778465
     0.572604619  0.336106078  0.354961348
     0.364505012  0.416079034  0.362889148
     0.070854156  0.836110538  0.355479350
     0.135281938  0.916113200  0.863424912
     0.364395908  0.339727539  0.681262831
     0.862571508  0.839746695  0.681953587
     0.070658118  0.919729594  0.689798219
     0.428970664  0.336088857  0.854909855
     0.429005569  0.419692257  0.189139627
     0.785731353  0.021443008  0.303119636
     0.786743608  0.734272586  0.742466180
     0.713926495  0.521430006  0.802728474
     0.713140564  0.234249004  0.242088958
     0.212222824  0.734347682  0.242704649
     0.288228259  0.521526470  0.302258595
     0.211414153  0.021551590  0.802685318
     0.287629720  0.234329399  0.742381250
     0.664678657  0.005333034  0.013850434
     0.909390402  0.038724985  0.589327604
     0.910546548  0.716995546  0.456316605
     0.590392866  0.538698080  0.089114519
     0.589316543  0.216955977  0.956043878
     0.332371623  0.750514745  0.532814364
     0.835016926  0.505358312  0.513415697
     0.833996898  0.250344065  0.531591271
     0.167528307  0.505353834  0.012672672
     0.088347432  0.716932838  0.956751355
     0.087567259  0.038980068  0.088723212
     0.411583579  0.216857622  0.456470173
     0.665927457  0.750337925  0.032065695
     0.332268786  0.005325051  0.513221745
     0.167461964  0.250554873  0.032517083
     0.411863751  0.538899930  0.588465028

  ion indices of the primitive-cell ions
   primitive index   ion index
                 1           1
                 2           2
                 3           3
                 4           4
                 5           5
                 6           6
                 7           7
                 8           8
                 9           9
                10          10
                11          11
                12          12
                13          13
                14          14
                15          15
                16          16
                17          17
                18          18
                19          19
                20          20
                21          21
                22          22
                23          23
                24          24
                25          25
                26          26
                27          27
                28          28
                29          29
                30          30
                31          31
                32          32
                33          33
                34          34
                35          35
                36          36
                37          37
                38          38
                39          39
                40          40
                41          41
                42          42
                43          43
                44          44
                45          45
                46          46
                47          47
                48          48
                49          49
                50          50
                51          51
                52          52
                53          53
                54          54
                55          55
                56          56
                57          57
                58          58
                59          59
                60          60
                61          61
                62          62
                63          63
                64          64
                65          65
                66          66
                67          67
                68          68
                69          69
                70          70
                71          71
                72          72
                73          73
                74          74
                75          75
                76          76
                77          77
                78          78
                79          79
                80          80
                81          81
                82          82
                83          83
                84          84
                85          85
                86          86
                87          87
                88          88
                89          89
                90          90
                91          91
                92          92
                93          93
                94          94
                95          95
                96          96
                97          97
                98          98
                99          99
               100         100
               101         101
               102         102
               103         103
               104         104
               105         105
               106         106
               107         107
               108         108
               109         109
               110         110
               111         111
               112         112
               113         113
               114         114
               115         115
               116         116
               117         117
               118         118
               119         119
               120         120
               121         121
               122         122
               123         123
               124         124
               125         125
               126         126
               127         127
               128         128
               129         129
               130         130
               131         131
               132         132
               133         133
               134         134
               135         135
               136         136
               137         137
               138         138
               139         139
               140         140
               141         141
               142         142
               143         143
               144         144
               145         145
               146         146
               147         147
               148         148
               149         149
               150         150
               151         151
               152         152
               153         153
               154         154
               155         155
               156         156

----------------------------------------------------------------------------------------

 
 

Automatic generation of k-mesh.
 generate k-points for:    3    1    4
Space group operators:
 irot       det(A)        alpha          n_x          n_y          n_z        tau_x        tau_y        tau_z
    1     1.000000     0.000000     1.000000     0.000000     0.000000     0.000000     0.000000     0.000000
 
 Subroutine IBZKPT returns following result:
 ===========================================
 
 Found      7 irreducible k-points:
 
 Following reciprocal coordinates:
            Coordinates               Weight
  0.000000  0.000000  0.000000      1.000000
  0.333333  0.000000 -0.000000      2.000000
  0.000000 -0.000000  0.250000      2.000000
  0.333333 -0.000000  0.250000      2.000000
 -0.333333 -0.000000  0.250000      2.000000
  0.000000 -0.000000  0.500000      1.000000
  0.333333 -0.000000  0.500000      2.000000
 
 Following cartesian coordinates:
            Coordinates               Weight
  0.000000  0.000000  0.000000      1.000000
  0.033701 -0.000005 -0.000006      2.000000
  0.000002  0.003003  0.036805      2.000000
  0.033703  0.002998  0.036799      2.000000
 -0.033699  0.003007  0.036811      2.000000
  0.000004  0.006006  0.073610      1.000000
  0.033705  0.006001  0.073604      2.000000
 


--------------------------------------------------------------------------------------------------------




 Dimension of arrays:
   k-points           NKPTS =      7   k-points in BZ     NKDIM =      7   number of bands    NBANDS=    400
   number of dos      NEDOS =    301   number of ions     NIONS =    156
   non local maximal  LDIM  =      6   non local SUM 2l+1 LMDIM =     18
   total plane-waves  NPLWV = 504000
   max r-space proj   IRMAX =   2192   max aug-charges    IRDMAX=   7032
   dimension x,y,z NGX =    60 NGY =  200 NGZ =   42
   dimension x,y,z NGXF=   120 NGYF=  400 NGZF=   84
   support grid    NGXF=   120 NGYF=  400 NGZF=   84
   ions per type =              80   4  32  24  16
   NGX,Y,Z   is equivalent  to a cutoff of  10.08, 10.13, 10.18 a.u.
   NGXF,Y,Z  is equivalent  to a cutoff of  20.17, 20.26, 20.37 a.u.

 SYSTEM =  flex_MOF                                
 POSCAR =  Zn_H                                    

 Startparameter for this run:
   NWRITE =      2    write-flag & timer
   PREC   = normal    normal or accurate (medium, high low for compatibility)
   ISTART =      0    job   : 0-new  1-cont  2-samecut
   ICHARG =      2    charge: 1-file 2-atom 10-const
   ISPIN  =      1    spin polarized calculation?
   LNONCOLLINEAR =      F non collinear calculations
   LSORBIT =      F    spin-orbit coupling
   INIWAV =      1    electr: 0-lowe 1-rand  2-diag
   LASPH  =      F    aspherical Exc in radial PAW
   METAGGA=      F    non-selfconsistent MetaGGA calc.

 Electronic Relaxation 1
   ENCUT  =  600.0 eV  44.10 Ry    6.64 a.u.  19.75 65.57 13.69*2*pi/ulx,y,z
   ENINI  =  600.0     initial cutoff
   ENAUG  =  644.9 eV  augmentation charge cutoff
   NELM   =     80;   NELMIN=  4; NELMDL=-12     # of ELM steps 
   EDIFF  = 0.1E-05   stopping-criterion for ELM
   LREAL  =      T    real-space projection
   NLSPLINE    = F    spline interpolate recip. space projectors
   LCOMPAT=      F    compatible to vasp.4.4
   GGA_COMPAT  = T    GGA compatible to vasp.4.4-vasp.4.6
   LMAXPAW     = -100 max onsite density
   LMAXMIX     =    2 max onsite mixed and CHGCAR
   VOSKOWN=      0    Vosko Wilk Nusair interpolation
   ROPT   =   -0.00050  -0.00050  -0.00050  -0.00050
   ROPT   =   -0.00050
 Ionic relaxation
   EDIFFG = -.1E-01   stopping-criterion for IOM
   NSW    =   1000    number of steps for IOM
   NBLOCK =      1;   KBLOCK =   1000    inner block; outer block 
   IBRION =      2    ionic relax: 0-MD 1-quasi-New 2-CG
   NFREE  =      1    steps in history (QN), initial steepest desc. (CG)
   ISIF   =      4    stress and relaxation
   IWAVPR =     11    prediction:  0-non 1-charg 2-wave 3-comb
   ISYM   =      0    0-nonsym 1-usesym 2-fastsym
   LCORR  =      T    Harris-Foulkes like correction to forces

   POTIM  = 0.5000    time-step for ionic-motion
   TEIN   =    0.0    initial temperature
   TEBEG  =    0.0;   TEEND  =   0.0 temperature during run
   SMASS  =  -3.00    Nose mass-parameter (am)
   estimated Nose-frequenzy (Omega)   =  0.10E-29 period in steps = 0.13E+47 mass=  -0.224E-26a.u.
   SCALEE = 1.0000    scale energy and forces
   NPACO  =    256;   APACO  = 16.0  distance and # of slots for P.C.
   PSTRESS=    0.0 pullay stress

  Mass of Ions in am
   POMASS =  12.01 65.39  1.00 14.00 16.00
  Ionic Valenz
   ZVAL   =   4.00 12.00  1.00  5.00  6.00
  Atomic Wigner-Seitz radii
   RWIGS  =  -1.00 -1.00 -1.00 -1.00 -1.00
  virtual crystal weights 
   VCA    =   1.00  1.00  1.00  1.00  1.00
   NELECT =     616.0000    total number of electrons
   NUPDOWN=      -1.0000    fix difference up-down

 DOS related values:
   EMIN   =  10.00;   EMAX   =-10.00  energy-range for DOS
   EFERMI =   0.00
   ISMEAR =     0;   SIGMA  =   0.05  broadening in eV -4-tet -1-fermi 0-gaus

 Electronic relaxation 2 (details)
   IALGO  =     48    algorithm
   LDIAG  =      T    sub-space diagonalisation (order eigenvalues)
   LSUBROT=      F    optimize rotation matrix (better conditioning)
   TURBO    =      0    0=normal 1=particle mesh
   IRESTART =      0    0=no restart 2=restart with 2 vectors
   NREBOOT  =      0    no. of reboots
   NMIN     =      0    reboot dimension
   EREF     =   0.00    reference energy to select bands
   IMIX   =      4    mixing-type and parameters
     AMIX     =   0.40;   BMIX     =  1.00
     AMIX_MAG =   1.60;   BMIX_MAG =  1.00
     AMIN     =   0.10
     WC   =   100.;   INIMIX=   1;  MIXPRE=   1;  MAXMIX= -45

 Intra band minimization:
   WEIMIN = 0.0010     energy-eigenvalue tresh-hold
   EBREAK =  0.63E-09  absolut break condition
   DEPER  =   0.30     relativ break condition  

   TIME   =   0.40     timestep for ELM

  volume/ion in A,a.u.               =      14.09        95.09
  Fermi-wavevector in a.u.,A,eV,Ry     =   1.071297  2.024457 15.615088  1.147677
  Thomas-Fermi vector in A             =   2.207033
 
 Write flags
   LWAVE        =      T    write WAVECAR
   LDOWNSAMPLE  =      F    k-point downsampling of WAVECAR
   LCHARG       =      T    write CHGCAR
   LVTOT        =      F    write LOCPOT, total local potential
   LVHAR        =      F    write LOCPOT, Hartree potential only
   LELF         =      F    write electronic localiz. function (ELF)
   LORBIT       =      0    0 simple, 1 ext, 2 COOP (PROOUT), +10 PAW based schemes


 Dipole corrections
   LMONO  =      F    monopole corrections only (constant potential shift)
   LDIPOL =      F    correct potential (dipole corrections)
   IDIPOL =      0    1-x, 2-y, 3-z, 4-all directions 
   EPSILON=  1.0000000 bulk dielectric constant

 Exchange correlation treatment:
   GGA     =    PE    GGA type
   LEXCH   =     8    internal setting for exchange type
   VOSKOWN=      0    Vosko Wilk Nusair interpolation
   LHFCALC =     F    Hartree Fock is set to
   LHFONE  =     F    Hartree Fock one center treatment
   AEXX    =    0.0000 exact exchange contribution

 Linear response parameters
   LEPSILON=     F    determine dielectric tensor
   LRPA    =     F    only Hartree local field effects (RPA)
   LNABLA  =     F    use nabla operator in PAW spheres
   LVEL    =     F    velocity operator in full k-point grid
   LINTERFAST=   F  fast interpolation
   KINTER  =     0    interpolate to denser k-point grid
   CSHIFT  =0.1000    complex shift for real part using Kramers Kronig
   OMEGAMAX=  -1.0    maximum frequency
   DEG_THRESHOLD= 0.2000000E-02 threshold for treating states as degnerate
   RTIME   =   -0.100 relaxation time in fs
  (WPLASMAI=    0.000 imaginary part of plasma frequency in eV, 0.658/RTIME)
   DFIELD  = 0.0000000 0.0000000 0.0000000 field for delta impulse in time
 
 Orbital magnetization related:
   ORBITALMAG=     F  switch on orbital magnetization
   LCHIMAG   =     F  perturbation theory with respect to B field
   DQ        =  0.001000  dq finite difference perturbation B field
   LLRAUG    =     F  two centre corrections for induced B field



--------------------------------------------------------------------------------------------------------


 conjugate gradient relaxation of ions
 charge density and potential will be updated during run
 non-spin polarized calculation
 RMM-DIIS sequential band-by-band
 perform sub-space diagonalisation
    before iterative eigenvector-optimisation
 modified Broyden-mixing scheme, WC =      100.0
 initial mixing is a Kerker type mixing with AMIX =  0.4000 and BMIX =      1.0000
 Hartree-type preconditioning will be used
 using additional bands           92
 real space projection scheme for non local part
 use partial core corrections
 calculate Harris-corrections to forces 
   (improved forces if not selfconsistent)
 use gradient corrections 
 use of overlap-Matrix (Vanderbilt PP)
 Gauss-broadening in eV      SIGMA  =   0.05


--------------------------------------------------------------------------------------------------------


  energy-cutoff  :      600.00
  volume of cell :     2198.24
      direct lattice vectors                 reciprocal lattice vectors
     9.890900925 -0.000114814 -0.000484334     0.101103024 -0.000013757 -0.000016541
     0.004015290 32.719506467 -2.669447742     0.000000473  0.030755568  0.002362662
     0.001046839 -0.525099538  6.835397946     0.000007348  0.012011060  0.147219957

  length of vectors
     9.890900938 32.828220646  6.855537594     0.101103026  0.030846185  0.147709111


 
 k-points in units of 2pi/SCALE and weight: read from INCAR                         
   0.00000000  0.00000000  0.00000000       0.083
   0.03370101 -0.00000459 -0.00000551       0.167
   0.00000184  0.00300276  0.03680499       0.167
   0.03370285  0.00299818  0.03679948       0.167
  -0.03369917  0.00300735  0.03681050       0.167
   0.00000367  0.00600553  0.07360998       0.083
   0.03370468  0.00600094  0.07360447       0.167
 
 k-points in reciprocal lattice and weights: read from INCAR                         
   0.00000000  0.00000000  0.00000000       0.083
   0.33333333  0.00000000 -0.00000000       0.167
   0.00000000 -0.00000000  0.25000000       0.167
   0.33333333 -0.00000000  0.25000000       0.167
  -0.33333333 -0.00000000  0.25000000       0.167
   0.00000000 -0.00000000  0.50000000       0.083
   0.33333333 -0.00000000  0.50000000       0.167
 
 position of ions in fractional coordinates (direct lattice) 
   0.90223733  0.95741108  0.14617289
   0.79797793  0.95195954  0.42863238
   0.90282296  0.79840385  0.89933848
   0.59751563  0.45739472  0.64564285
   0.70120196  0.30368915  0.11613330
   0.19970986  0.80378338  0.11670657
   0.70171774  0.45194033  0.92809839
   0.59710018  0.29839664  0.39886840
   0.30048571  0.45209500  0.42814336
   0.09564954  0.79841718  0.39938837
   0.19929677  0.95212504  0.92860878
   0.30015126  0.30374759  0.61621776
   0.79860642  0.80372821  0.61675490
   0.09516959  0.95743973  0.64590528
   0.40421344  0.29840028  0.89889415
   0.40439293  0.45740004  0.14526744
   0.71231342  0.03201416  0.14064393
   0.84441240  0.05013370  0.45474044
   0.84546384  0.70558612  0.59080213
   0.65532394  0.55011255  0.95449828
   0.65437981  0.20555155  0.09054338
   0.28548459  0.72381313  0.40542531
   0.78738845  0.53202565  0.64032278
   0.78645131  0.22367046  0.40465940
   0.21473458  0.53206104  0.13975664
   0.15375716  0.70559360  0.09108817
   0.15288902  0.05030803  0.95426354
   0.34608997  0.20555346  0.59083701
   0.71340824  0.72367594  0.90498958
   0.28496991  0.03205362  0.64015171
   0.21431060  0.22383108  0.90517203
   0.34665705  0.55025937  0.45397958
   0.69847036  0.07667946  0.13090109
   0.82535375  0.09447262  0.44172093
   0.82631291  0.66124162  0.60367440
   0.67433154  0.59445635  0.94155006
   0.67348829  0.16121370  0.10356434
   0.30023026  0.67914418  0.41471309
   0.80130661  0.57669657  0.63076885
   0.80036282  0.17900390  0.41436284
   0.20018387  0.57672268  0.13030537
   0.17364200  0.66126090  0.10374331
   0.17270471  0.09463490  0.94132245
   0.32610778  0.16122765  0.60359266
   0.69939908  0.67900328  0.91448867
   0.29948140  0.07670716  0.63046612
   0.19947662  0.17917054  0.91455803
   0.32690365  0.59459360  0.44121149
   0.63124260  0.08919311  0.97238186
   0.88035054  0.12436920  0.58622848
   0.88112974  0.63134938  0.45891007
   0.61931177  0.62434512  0.08611814
   0.61868275  0.13131021  0.95889540
   0.36788102  0.66665889  0.57297739
   0.86854418  0.58922930  0.47228812
   0.86774027  0.16648709  0.57275446
   0.13264911  0.58920007  0.97193112
   0.11931688  0.63131272  0.95881370
   0.11828502  0.12461267  0.08603017
   0.38047896  0.13125660  0.45878330
   0.63194663  0.66646894  0.07279455
   0.36710644  0.08915175  0.47207104
   0.13178393  0.16672295  0.07288178
   0.38133567  0.62454366  0.58600330
   0.82159903  0.97913331  0.29451944
   0.82244710  0.77659332  0.75098504
   0.67807397  0.47911675  0.79400923
   0.67743573  0.27656990  0.25047641
   0.17616095  0.77664481  0.25105682
   0.32412721  0.47921802  0.29378678
   0.17551292  0.97925162  0.79430684
   0.32370632  0.27662068  0.75062966
   0.75556179  0.10648827  0.27966614
   0.75652706  0.64920358  0.76566714
   0.74417878  0.60649198  0.77958630
   0.74324623  0.14919655  0.26560978
   0.24368204  0.64928377  0.26566480
   0.25680788  0.60657354  0.27931052
   0.24282824  0.10658022  0.77935944
   0.25600814  0.14928519  0.76556155
   0.04579679  0.87795644  0.02275646
   0.95215824  0.87790014  0.52268255
   0.45412312  0.37792154  0.52216195
   0.54756822  0.37788865  0.02192888
   0.43362682  0.14119591  0.33519137
   0.91030914  0.56559705  0.35867328
   0.90961058  0.19012291  0.68622710
   0.58947490  0.06555706  0.85883204
   0.59002129  0.69009341  0.18630989
   0.56622887  0.61433939  0.20959139
   0.06622195  0.64127891  0.83525370
   0.06505194  0.11467902  0.20954802
   0.93401871  0.64136834  0.33530402
   0.09035084  0.19040901  0.18654201
   0.09120028  0.56552855  0.85822475
   0.40931912  0.69032227  0.68671443
   0.43454302  0.61458694  0.70948316
   0.56579653  0.14131630  0.83526836
   0.93336343  0.11437586  0.70977748
   0.40862934  0.06546687  0.35849231
   0.75678312  0.45656365  0.06686348
   0.24514817  0.29905273  0.47738344
   0.44538984  0.46761837  0.01457979
   0.05465815  0.78816544  0.52998042
   0.25430684  0.95681706  0.06742983
   0.44522864  0.28815847  0.02949904
   0.94333691  0.96769943  0.01570179
   0.74356474  0.79903311  0.47796748
   0.05408057  0.96766869  0.51529080
   0.55646930  0.46769060  0.51518349
   0.75622311  0.29897427  0.97730851
   0.74288796  0.95659304  0.56740964
   0.55603299  0.28817135  0.52947768
   0.24555991  0.45680570  0.56703960
   0.25472933  0.79910026  0.97786658
   0.94395574  0.78815504  0.02984608
   0.92700070  0.91969979  0.18987253
   0.86230546  0.91599821  0.36336135
   0.92726497  0.83612242  0.85553520
   0.57279716  0.41967861  0.68928759
   0.63721141  0.33971460  0.18128734
   0.13544991  0.83976223  0.18184240
   0.63746742  0.41597585  0.86277846
   0.57260462  0.33610608  0.35496135
   0.36450501  0.41607903  0.36288915
   0.07085416  0.83611054  0.35547935
   0.13528194  0.91611320  0.86342491
   0.36439591  0.33972754  0.68126283
   0.86257151  0.83974669  0.68195359
   0.07065812  0.91972959  0.68979822
   0.42897066  0.33608886  0.85490986
   0.42900557  0.41969226  0.18913963
   0.78573135  0.02144301  0.30311964
   0.78674361  0.73427259  0.74246618
   0.71392649  0.52143001  0.80272847
   0.71314056  0.23424900  0.24208896
   0.21222282  0.73434768  0.24270465
   0.28822826  0.52152647  0.30225860
   0.21141415  0.02155159  0.80268532
   0.28762972  0.23432940  0.74238125
   0.66467866  0.00533303  0.01385043
   0.90939040  0.03872498  0.58932760
   0.91054655  0.71699555  0.45631660
   0.59039287  0.53869808  0.08911452
   0.58931654  0.21695598  0.95604388
   0.33237162  0.75051474  0.53281436
   0.83501693  0.50535831  0.51341570
   0.83399690  0.25034407  0.53159127
   0.16752831  0.50535383  0.01267267
   0.08834743  0.71693284  0.95675135
   0.08756726  0.03898007  0.08872321
   0.41158358  0.21685762  0.45647017
   0.66592746  0.75033792  0.03206569
   0.33226879  0.00532505  0.51322175
   0.16746196  0.25055487  0.03251708
   0.41186375  0.53889993  0.58846503
 
 position of ions in cartesian coordinates  (Angst):
   8.92793739 31.24915906 -1.55704597
   7.89699170 30.92248015  0.38828012
   8.93387969 25.65103420  4.01560179
   5.91248035 14.62663425  3.19194508
   6.93686008  9.87549700 -0.01720460
   1.97866007 26.23809002 -1.34801858
   6.94340688 14.29983986  5.13715089
   5.90747440  9.55387672  1.92958083
   2.97433785 14.56747286  1.71954076
   0.94968408 25.91408651  0.59859918
   1.97601974 30.66542652  3.80566596
   2.97063111  9.61486110  3.40110994
   7.90280985 25.97364085  2.06986797
   0.94583358 30.98777979  1.85913824
   4.00017429  9.29145468  5.34753952
   4.00179906 14.88957713 -0.22824057
   7.04569723  0.97355368  0.87555209
   8.35267677  1.40146907  2.97409358
   8.36585071 22.77610267  2.15443291
   6.48495227 17.49812922  5.05556148
   6.47332598  6.67792597  0.06987397
   2.82703053 23.46988698  0.83892373
   7.79078772 17.07129314  2.95626497
   7.78003369  7.10581019  2.16855053
   2.12620116 17.33536397 -0.46512088
   1.52372539 23.03882624 -1.26099583
   1.51341112  1.14495300  6.38840237
   3.42458551  6.41531971  3.48972427
   7.06010334 23.20302794  4.25380333
   2.81940796  0.71260266  4.28998818
   2.12157123  6.84831261  5.58960183
   3.43143523 17.76579076  1.63407454
   6.90894605  2.44009793  0.68973093
   8.16433388  2.85905520  2.76674888
   8.17626619 21.31841528  2.36080463
   6.67311902 18.95583362  4.84867254
   6.66216167  5.22037365  0.27722574
   2.97270886 22.00346217  1.02164369
   7.92862022 18.53791877  2.77170666
   7.91746192  5.63924556  2.35410573
   1.98245090 18.80163527 -0.64893896
   1.72023962 21.58163478 -1.05615873
   1.70957055  2.60209926  6.18160698
   3.22677896  4.95830557  3.69524931
   6.92137070 21.73637443  4.43799148
   2.96310883  2.17872855  4.10457599
   1.97468034  5.38211466  5.77298511
   3.23622093 19.22309169  1.42846122
   6.24493408  2.40768487  6.40821492
   8.70857303  3.76136947  3.67468151
   8.71818240 20.41636562  1.45105203
   6.12814840 20.38297264 -1.07830490
   6.12086085  3.79281885  6.20360625
   3.64195132 21.51183730  2.13673922
   8.59354480 19.03119404  1.65493972
   8.58400108  5.14652268  3.47015581
   1.31540249 18.76795961  5.07063295
   1.18369008 20.15275431  4.86855910
   1.17053584  4.03207723  0.25534614
   3.76428699  4.05370069  2.78539951
   6.25327380 21.76823789 -1.28183033
   3.63186560  2.66907492  2.98862969
   1.30420750  5.41680721  0.05305398
   3.77487448 20.12700650  2.33819439
   8.13059445 31.88201223 -0.60098554
   8.13864724 25.01531395  3.05980797
   6.70951748 15.25945187  4.14806352
   6.70182242  8.91762787  0.97348890
   1.74577174 25.27958490 -0.35722478
   3.20814187 15.52547263  0.72874509
   1.74074439 31.62351936  2.81525732
   3.20364367  8.65669980  4.39227123
   7.47390718  3.33730418  1.62699855
   7.48614242 20.83948226  3.50025817
   7.36384992 19.43467255  3.70942349
   7.35225193  4.74208072  1.41691616
   2.41312013 21.10471620  0.08257749
   2.54278923 19.70009150  0.28985779
   2.40303393  3.07798287  5.04260398
   2.53355195  4.48251222  4.83428482
   0.45652057 28.71434673 -2.18813153
   9.42177503 28.44988972  1.22877350
   4.49375091 12.09116728  2.56012293
   5.41748326 12.35275241 -0.85912661
   4.28987774  4.44380198  1.91404130
   9.00642401 18.31761251  0.94140196
   8.99834985  5.86028566  4.18267156
   5.83160012  1.69395480  5.69517208
   5.83880810 22.48161692 -0.56895185
   5.60319983 19.99076034 -0.20758056
   0.65844409 20.54373062  3.99739883
   0.64410216  3.64219999  1.12618297
   9.24121280 20.80908047  0.57938473
   0.89461103  6.13212541  0.76675823
   0.90522213 18.05315117  4.35661464
   4.05202563 22.22636367  2.85098891
   4.30123245 19.73638212  3.20878155
   5.59767924  4.18513567  5.33188109
   9.23300746  3.36951056  4.54583910
   4.04235049  1.95375255  2.27547927
   7.48717007 14.90334029 -0.76210086
   2.42643679  9.53415584  2.46468141
   4.40719971 15.29253545 -1.14883986
   0.54433781 25.51008539  1.51863415
   2.51923620 31.27114528 -2.09338655
   4.40490031  9.41286195 -0.56780197
   9.33435398 31.65429459 -2.47635194
   7.35823386 25.89290323  1.13376067
   0.53933042 31.39105668  0.93905048
   5.50639992 15.03201906  2.27273901
   7.48195139  9.26901942  5.88183015
   7.35226620 31.00122029  1.32453577
   5.50137856  9.15073209  2.84966299
   2.43123655 14.64867659  2.65640342
   2.52373490 25.63265971  4.55082747
   9.33976862 25.77226352 -1.90038609
   9.17276369 29.99231466 -1.15768520
   8.53303627 29.78010958  0.03809244
   9.17573879 26.90816519  3.61548932
   5.66788669 13.36966676  3.59096743
   6.30414874 11.02002713  0.33201210
   1.34328389 27.38110481 -0.99880180
   6.30770054 13.15740663  4.78669962
   5.66529671 10.81076920  1.52880713
   3.60733353 13.42330586  1.36961396
   0.70454080 27.17045397  0.19785512
   1.34264258 29.52137221  3.45627103
   3.60628110 10.75794478  3.74964116
   8.53569505 27.11790486  2.41934646
   0.70328754 29.73087755  2.25984102
   4.24515078 10.54769952  4.94626966
   4.24513476 13.63275714  0.17229029
   7.77199438  0.54234646  2.01432179
   7.78532864 23.63507763  3.11456846
   7.06431025 16.63933812  4.09469263
   7.05479667  7.53730912  1.02911349
   2.10227762 23.90002528 -0.30142269
   2.85324765 16.90533978  0.67373052
   2.09200326  0.28364342  5.42904034
   2.84663512  7.27728520  4.44880188
   6.57430665  0.16714507  0.08011504
   8.99546279  0.95750233  3.92447392
   9.00948233 23.22002424  1.20468243
   5.84177366 17.57907353 -0.82917912
   5.83074351  6.59660663  5.95550229
   3.29102609 24.27665330  1.63837734
   8.26163631 16.26538433  2.15996857
   8.25054239  7.91190018  2.96495355
   1.65904830 16.52825439 -1.26247404
   0.87771595 22.95528879  4.62591871
   0.86636848  1.22881002  0.50236079
   4.07228100  6.85573484  2.54106585
   6.58966889 24.53377243 -1.78412862
   3.28699628 -0.09529761  3.49369899
   1.65738978  8.18093785 -0.44665704
   4.07648342 17.32348973  2.58362797
 


--------------------------------------------------------------------------------------------------------


 k-point  1 :   0.0000 0.0000 0.0000  plane waves:   73341
 k-point  2 :   0.3333 0.0000-0.0000  plane waves:   73414
 k-point  3 :   0.0000-0.0000 0.2500  plane waves:   73351
 k-point  4 :   0.3333-0.0000 0.2500  plane waves:   73360
 k-point  5 :  -0.3333-0.0000 0.2500  plane waves:   73363
 k-point  6 :   0.0000-0.0000 0.5000  plane waves:   73452
 k-point  7 :   0.3333-0.0000 0.5000  plane waves:   73343

 maximum and minimum number of plane-waves per node :     18382    18296

 maximum number of plane-waves:     73452
 maximum index in each direction: 
   IXMAX=   20   IYMAX=   65   IZMAX=   13
   IXMIN=  -20   IYMIN=  -65   IZMIN=  -14


 real space projection operators:
  total allocation   :      11660.88 KBytes
  max/ min on nodes  :       2917.47       2911.83


 parallel 3D FFT for wavefunctions:
    minimum data exchange during FFTs selected (reduces bandwidth)
 parallel 3D FFT for charge:
    minimum data exchange during FFTs selected (reduces bandwidth)


 total amount of memory used by VASP MPI-rank0   105558. kBytes
=======================================================================

   base      :      30000. kBytes
   nonlr-proj:       5928. kBytes
   fftplans  :       6177. kBytes
   grid      :      10566. kBytes
   one-center:        606. kBytes
   wavefun   :      52281. kBytes
 
     INWAV:  cpu time    0.0002: real time    0.0006
 Broyden mixing: mesh for mixing (old mesh)
   NGX = 39   NGY =131   NGZ = 27
  (NGX  =120   NGY  =400   NGZ  = 84)
  gives a total of 137943 points

 initial charge density was supplied:
 charge density of overlapping atoms calculated
 number of electron     616.0000000 magnetization 
 keeping initial charge density in first step


--------------------------------------------------------------------------------------------------------


 Maximum index for non-local projection operator          526
 Maximum index for augmentation-charges          419 (set IRDMAX)


--------------------------------------------------------------------------------------------------------


 First call to EWALD:  gamma=   0.136
 Maximum number of real-space cells 3x 1x 5
 Maximum number of reciprocal cells 2x 6x 2

    FEWALD:  cpu time    0.0132: real time    0.0136


--------------------------------------- Iteration      1(   1)  ---------------------------------------


    POTLOK:  cpu time    0.1129: real time    0.1669
    SETDIJ:  cpu time    0.0297: real time    0.0298
    EDDIAG:  cpu time    4.2966: real time    4.3745
  RMM-DIIS:  cpu time    5.4889: real time    5.4952
    ORTHCH:  cpu time    0.9189: real time    0.9198
       DOS:  cpu time    0.0053: real time    0.0058
    --------------------------------------------
      LOOP:  cpu time   10.8524: real time   10.9920

 eigenvalue-minimisations  :  2800
 total energy-change (2. order) : 0.6535941E+04  (-0.2598478E+05)
 number of electron     616.0000000 magnetization 
 augmentation part      616.0000000 magnetization 

 Free energy of the ion-electron system (eV)
  ---------------------------------------------------
  alpha Z        PSCENC =       878.83990172
  Ewald energy   TEWEN  =     -2720.72962476
  -Hartree energ DENC   =    -26218.43554506
  -exchange      EXHF   =         0.00000000
  -V(xc)+E(xc)   XCENC  =      2273.28254351
  PAW double counting   =     25034.14638475   -25847.60581054
  entropy T*S    EENTRO =        -0.05104158
  eigenvalues    EBANDS =       702.81438574
  atomic energy  EATOM  =     32433.67991533
  Solvation  Ediel_sol  =         0.00000000
  ---------------------------------------------------
  free energy    TOTEN  =      6535.94110911 eV

  energy without entropy =     6535.99215069  energy(sigma->0) =     6535.96662990


--------------------------------------------------------------------------------------------------------




--------------------------------------- Iteration      1(   2)  ---------------------------------------


    EDDIAG:  cpu time    4.1519: real time    4.1583
  RMM-DIIS:  cpu time    5.5418: real time    5.5478
    ORTHCH:  cpu time    0.9036: real time    0.9046
       DOS:  cpu time    0.0037: real time    0.0037
    --------------------------------------------
      LOOP:  cpu time   10.6011: real time   10.6143

 eigenvalue-minimisations  :  2800
 total energy-change (2. order) :-0.4224896E+04  (-0.6695801E+04)
 number of electron     616.0000000 magnetization 
 augmentation part      616.0000000 magnetization 

 Free energy of the ion-electron system (eV)
  ---------------------------------------------------
  alpha Z        PSCENC =       878.83990172
  Ewald energy   TEWEN  =     -2720.72962476
  -Hartree energ DENC   =    -26218.43554506
  -exchange      EXHF   =         0.00000000
  -V(xc)+E(xc)   XCENC  =      2273.28254351
  PAW double counting   =     25034.14638475   -25847.60581054
  entropy T*S    EENTRO =        -0.02208468
  eigenvalues    EBANDS =     -3522.11079264
  atomic energy  EATOM  =     32433.67991533
  Solvation  Ediel_sol  =         0.00000000
  ---------------------------------------------------
  free energy    TOTEN  =      2311.04488763 eV

  energy without entropy =     2311.06697231  energy(sigma->0) =     2311.05592997


--------------------------------------------------------------------------------------------------------




--------------------------------------- Iteration      1(   3)  ---------------------------------------


    EDDIAG:  cpu time    4.1490: real time    4.1536
  RMM-DIIS:  cpu time    5.4295: real time    5.4362
    ORTHCH:  cpu time    0.9008: real time    0.9018
       DOS:  cpu time    0.0039: real time    0.0039
    --------------------------------------------
      LOOP:  cpu time   10.4832: real time   10.4956

 eigenvalue-minimisations  :  2800
 total energy-change (2. order) :-0.2096685E+04  (-0.2514880E+04)
 number of electron     616.0000000 magnetization 
 augmentation part      616.0000000 magnetization 

 Free energy of the ion-electron system (eV)
  ---------------------------------------------------
  alpha Z        PSCENC =       878.83990172
  Ewald energy   TEWEN  =     -2720.72962476
  -Hartree energ DENC   =    -26218.43554506
  -exchange      EXHF   =         0.00000000
  -V(xc)+E(xc)   XCENC  =      2273.28254351
  PAW double counting   =     25034.14638475   -25847.60581054
  entropy T*S    EENTRO =        -0.03988171
  eigenvalues    EBANDS =     -5618.77797625
  atomic energy  EATOM  =     32433.67991533
  Solvation  Ediel_sol  =         0.00000000
  ---------------------------------------------------
  free energy    TOTEN  =       214.35990699 eV

  energy without entropy =      214.39978870  energy(sigma->0) =      214.37984784


--------------------------------------------------------------------------------------------------------




--------------------------------------- Iteration      1(   4)  ---------------------------------------


    EDDIAG:  cpu time    4.1227: real time    4.1265
  RMM-DIIS:  cpu time    5.4305: real time    5.4365
    ORTHCH:  cpu time    0.9017: real time    0.9028
       DOS:  cpu time    0.0031: real time    0.0031
    --------------------------------------------
      LOOP:  cpu time   10.4580: real time   10.4689

 eigenvalue-minimisations  :  2800
 total energy-change (2. order) :-0.9550439E+03  (-0.9178038E+03)
 number of electron     616.0000000 magnetization 
 augmentation part      616.0000000 magnetization 

 Free energy of the ion-electron system (eV)
  ---------------------------------------------------
  alpha Z        PSCENC =       878.83990172
  Ewald energy   TEWEN  =     -2720.72962476
  -Hartree energ DENC   =    -26218.43554506
  -exchange      EXHF   =         0.00000000
  -V(xc)+E(xc)   XCENC  =      2273.28254351
  PAW double counting   =     25034.14638475   -25847.60581054
  entropy T*S    EENTRO =        -0.01814769
  eigenvalues    EBANDS =     -6573.84360659
  atomic energy  EATOM  =     32433.67991533
  Solvation  Ediel_sol  =         0.00000000
  ---------------------------------------------------
  free energy    TOTEN  =      -740.68398933 eV

  energy without entropy =     -740.66584164  energy(sigma->0) =     -740.67491549


--------------------------------------------------------------------------------------------------------




--------------------------------------- Iteration      1(   5)  ---------------------------------------


    EDDIAG:  cpu time    4.1485: real time    4.1535
  RMM-DIIS:  cpu time    5.4269: real time    5.4331
    ORTHCH:  cpu time    0.9012: real time    0.9020
       DOS:  cpu time    0.0042: real time    0.0042
    --------------------------------------------
      LOOP:  cpu time   10.4808: real time   10.4928

 eigenvalue-minimisations  :  2800
 total energy-change (2. order) :-0.3275348E+03  (-0.2929028E+03)
 number of electron     616.0000000 magnetization 
 augmentation part      616.0000000 magnetization 

 Free energy of the ion-electron system (eV)
  ---------------------------------------------------
  alpha Z        PSCENC =       878.83990172
  Ewald energy   TEWEN  =     -2720.72962476
  -Hartree energ DENC   =    -26218.43554506
  -exchange      EXHF   =         0.00000000
  -V(xc)+E(xc)   XCENC  =      2273.28254351
  PAW double counting   =     25034.14638475   -25847.60581054
  entropy T*S    EENTRO =        -0.00475559
  eigenvalues    EBANDS =     -6901.39179184
  atomic energy  EATOM  =     32433.67991533
  Solvation  Ediel_sol  =         0.00000000
  ---------------------------------------------------
  free energy    TOTEN  =     -1068.21878248 eV

  energy without entropy =    -1068.21402689  energy(sigma->0) =    -1068.21640468


--------------------------------------------------------------------------------------------------------




--------------------------------------- Iteration      1(   6)  ---------------------------------------


    EDDIAG:  cpu time    4.1251: real time    4.1307
  RMM-DIIS:  cpu time    5.4311: real time    5.4370
    ORTHCH:  cpu time    0.9030: real time    0.9042
       DOS:  cpu time    0.0024: real time    0.0024
    --------------------------------------------
      LOOP:  cpu time   10.4617: real time   10.4743

 eigenvalue-minimisations  :  2800
 total energy-change (2. order) :-0.1086155E+03  (-0.9587164E+02)
 number of electron     616.0000000 magnetization 
 augmentation part      616.0000000 magnetization 

 Free energy of the ion-electron system (eV)
  ---------------------------------------------------
  alpha Z        PSCENC =       878.83990172
  Ewald energy   TEWEN  =     -2720.72962476
  -Hartree energ DENC   =    -26218.43554506
  -exchange      EXHF   =         0.00000000
  -V(xc)+E(xc)   XCENC  =      2273.28254351
  PAW double counting   =     25034.14638475   -25847.60581054
  entropy T*S    EENTRO =        -0.00000000
  eigenvalues    EBANDS =     -7010.01208299
  atomic energy  EATOM  =     32433.67991533
  Solvation  Ediel_sol  =         0.00000000
  ---------------------------------------------------
  free energy    TOTEN  =     -1176.83431804 eV

  energy without entropy =    -1176.83431804  energy(sigma->0) =    -1176.83431804


--------------------------------------------------------------------------------------------------------




--------------------------------------- Iteration      1(   7)  ---------------------------------------


    EDDIAG:  cpu time    4.1518: real time    4.1559
  RMM-DIIS:  cpu time    5.4292: real time    5.4357
    ORTHCH:  cpu time    0.8978: real time    0.8988
       DOS:  cpu time    0.0028: real time    0.0028
    --------------------------------------------
      LOOP:  cpu time   10.4816: real time   10.4931

 eigenvalue-minimisations  :  2800
 total energy-change (2. order) :-0.3762825E+02  (-0.3410629E+02)
 number of electron     616.0000000 magnetization 
 augmentation part      616.0000000 magnetization 

 Free energy of the ion-electron system (eV)
  ---------------------------------------------------
  alpha Z        PSCENC =       878.83990172
  Ewald energy   TEWEN  =     -2720.72962476
  -Hartree energ DENC   =    -26218.43554506
  -exchange      EXHF   =         0.00000000
  -V(xc)+E(xc)   XCENC  =      2273.28254351
  PAW double counting   =     25034.14638475   -25847.60581054
  entropy T*S    EENTRO =        -0.00000000
  eigenvalues    EBANDS =     -7047.64033283
  atomic energy  EATOM  =     32433.67991533
  Solvation  Ediel_sol  =         0.00000000
  ---------------------------------------------------
  free energy    TOTEN  =     -1214.46256787 eV

  energy without entropy =    -1214.46256787  energy(sigma->0) =    -1214.46256787


--------------------------------------------------------------------------------------------------------




--------------------------------------- Iteration      1(   8)  ---------------------------------------


    EDDIAG:  cpu time    4.1192: real time    4.1237
  RMM-DIIS:  cpu time    5.4264: real time    5.4327
    ORTHCH:  cpu time    0.8992: real time    0.9001
       DOS:  cpu time    0.0024: real time    0.0024
    --------------------------------------------
      LOOP:  cpu time   10.4473: real time   10.4589

 eigenvalue-minimisations  :  2800
 total energy-change (2. order) :-0.1380103E+02  (-0.1236306E+02)
 number of electron     616.0000000 magnetization 
 augmentation part      616.0000000 magnetization 

 Free energy of the ion-electron system (eV)
  ---------------------------------------------------
  alpha Z        PSCENC =       878.83990172
  Ewald energy   TEWEN  =     -2720.72962476
  -Hartree energ DENC   =    -26218.43554506
  -exchange      EXHF   =         0.00000000
  -V(xc)+E(xc)   XCENC  =      2273.28254351
  PAW double counting   =     25034.14638475   -25847.60581054
  entropy T*S    EENTRO =        -0.00000000
  eigenvalues    EBANDS =     -7061.44136723
  atomic energy  EATOM  =     32433.67991533
  Solvation  Ediel_sol  =         0.00000000
  ---------------------------------------------------
  free energy    TOTEN  =     -1228.26360228 eV

[...]
   -.783E+02 -.280E+02 -.764E+02   0.649E+02 0.434E+02 0.891E+02   0.134E+02 -.154E+02 -.127E+02   -.384E-04 0.226E-03 0.390E-04
   0.291E+03 0.928E+02 -.479E+02   -.294E+03 -.113E+03 0.604E+02   0.374E+01 0.206E+02 -.125E+02   -.211E-05 -.260E-03 0.804E-05
   -.780E+02 -.278E+02 -.765E+02   0.646E+02 0.432E+02 0.892E+02   0.135E+02 -.154E+02 -.127E+02   -.410E-04 0.222E-03 0.412E-04
   -.291E+03 0.930E+02 -.477E+02   0.295E+03 -.114E+03 0.601E+02   -.376E+01 0.206E+02 -.125E+02   0.458E-05 -.255E-03 0.989E-05
   0.291E+03 -.932E+02 0.481E+02   -.294E+03 0.114E+03 -.605E+02   0.370E+01 -.206E+02 0.125E+02   -.163E-05 0.263E-03 -.843E-05
   0.291E+03 -.929E+02 0.476E+02   -.295E+03 0.113E+03 -.600E+02   0.378E+01 -.206E+02 0.124E+02   -.506E-05 0.255E-03 -.110E-04
   -.781E+02 0.280E+02 0.766E+02   0.647E+02 -.433E+02 -.893E+02   0.134E+02 0.154E+02 0.127E+02   -.419E-04 -.220E-03 -.406E-04
   0.781E+02 -.279E+02 -.765E+02   -.647E+02 0.432E+02 0.892E+02   -.135E+02 -.154E+02 -.127E+02   0.420E-04 0.230E-03 0.401E-04
   0.784E+02 0.279E+02 0.765E+02   -.650E+02 -.432E+02 -.892E+02   -.134E+02 0.154E+02 0.127E+02   0.421E-04 -.226E-03 -.405E-04
   0.126E+03 0.818E+02 -.242E+02   -.128E+03 -.818E+02 0.256E+02   0.266E+01 0.205E-01 -.140E+01   0.181E-03 -.354E-03 0.752E-05
   0.126E+03 -.815E+02 0.242E+02   -.129E+03 0.816E+02 -.256E+02   0.266E+01 -.264E-01 0.140E+01   0.185E-03 0.351E-03 -.105E-04
   -.126E+03 0.817E+02 -.241E+02   0.128E+03 -.818E+02 0.254E+02   -.264E+01 0.265E-01 -.139E+01   -.178E-03 -.360E-03 -.142E-05
   -.126E+03 -.816E+02 0.243E+02   0.129E+03 0.817E+02 -.257E+02   -.267E+01 -.225E-01 0.141E+01   -.183E-03 0.358E-03 -.445E-05
   -.126E+03 -.818E+02 0.243E+02   0.129E+03 0.819E+02 -.258E+02   -.268E+01 -.411E-01 0.141E+01   -.187E-03 0.352E-03 -.134E-04
   0.125E+03 0.814E+02 -.241E+02   -.128E+03 -.815E+02 0.255E+02   0.262E+01 0.226E-01 -.139E+01   0.180E-03 -.358E-03 0.745E-06
   -.125E+03 0.815E+02 -.242E+02   0.128E+03 -.815E+02 0.256E+02   -.263E+01 0.202E-01 -.139E+01   -.188E-03 -.356E-03 0.122E-04
   0.126E+03 -.819E+02 0.243E+02   -.129E+03 0.820E+02 -.257E+02   0.268E+01 -.375E-01 0.141E+01   0.188E-03 0.361E-03 -.107E-04
   0.255E+03 0.305E+03 0.219E+03   -.276E+03 -.341E+03 -.255E+03   0.211E+02 0.364E+02 0.356E+02   0.221E-03 -.400E-03 -.116E-03
   -.568E+02 0.974E+02 -.209E+03   0.848E+02 -.117E+03 0.251E+03   -.280E+02 0.197E+02 -.418E+02   0.175E-03 -.288E-03 0.130E-03
   -.569E+02 -.972E+02 0.209E+03   0.850E+02 0.117E+03 -.251E+03   -.281E+02 -.197E+02 0.417E+02   0.171E-03 0.283E-03 -.122E-03
   0.565E+02 0.975E+02 -.209E+03   -.845E+02 -.117E+03 0.251E+03   0.280E+02 0.197E+02 -.418E+02   -.177E-03 -.301E-03 0.130E-03
   0.572E+02 -.972E+02 0.209E+03   -.853E+02 0.117E+03 -.251E+03   0.281E+02 -.197E+02 0.417E+02   -.173E-03 0.300E-03 -.131E-03
   -.254E+03 -.305E+03 -.220E+03   0.275E+03 0.341E+03 0.256E+03   -.207E+02 -.364E+02 -.358E+02   -.222E-03 0.403E-03 0.120E-03
   -.255E+03 0.305E+03 0.219E+03   0.276E+03 -.341E+03 -.255E+03   -.210E+02 0.363E+02 0.356E+02   -.212E-03 -.423E-03 -.132E-03
   -.255E+03 -.305E+03 -.219E+03   0.276E+03 0.341E+03 0.255E+03   -.210E+02 -.363E+02 -.356E+02   -.215E-03 0.423E-03 0.135E-03
   0.254E+03 0.305E+03 0.220E+03   -.275E+03 -.341E+03 -.255E+03   0.209E+02 0.364E+02 0.356E+02   0.210E-03 -.422E-03 -.133E-03
   0.576E+02 -.969E+02 0.209E+03   -.858E+02 0.116E+03 -.250E+03   0.282E+02 -.196E+02 0.417E+02   -.171E-03 0.281E-03 -.120E-03
   0.577E+02 0.968E+02 -.209E+03   -.859E+02 -.116E+03 0.251E+03   0.282E+02 0.196E+02 -.417E+02   -.179E-03 -.290E-03 0.127E-03
   -.577E+02 -.968E+02 0.209E+03   0.859E+02 0.116E+03 -.250E+03   -.282E+02 -.196E+02 0.417E+02   0.181E-03 0.299E-03 -.126E-03
   0.255E+03 -.304E+03 -.220E+03   -.276E+03 0.341E+03 0.255E+03   0.210E+02 -.363E+02 -.357E+02   0.220E-03 0.401E-03 0.119E-03
   -.254E+03 0.305E+03 0.219E+03   0.275E+03 -.341E+03 -.255E+03   -.209E+02 0.364E+02 0.356E+02   -.218E-03 -.407E-03 -.122E-03
   0.254E+03 -.305E+03 -.220E+03   -.275E+03 0.341E+03 0.256E+03   0.207E+02 -.364E+02 -.357E+02   0.208E-03 0.432E-03 0.140E-03
   -.576E+02 0.969E+02 -.209E+03   0.857E+02 -.117E+03 0.251E+03   -.281E+02 0.196E+02 -.417E+02   0.177E-03 -.299E-03 0.127E-03
 -----------------------------------------------------------------------------------------------
   0.842E-01 -.126E+00 0.263E+00   0.000E+00 0.171E-12 -.227E-12   -.940E-01 0.154E+00 -.279E+00   0.649E-05 -.241E-04 -.129E-04
 
 
 POSITION                                       TOTAL-FORCE (eV/Angst)
 -----------------------------------------------------------------------------------
      8.92794     31.24916     -1.55705         0.001986      0.000278     -0.003557
      7.89699     30.92248      0.38828         0.003775     -0.001849     -0.000377
      8.93388     25.65103      4.01560         0.002163     -0.002681      0.002393
      5.91248     14.62663      3.19195        -0.003640      0.000319     -0.005759
      6.93686      9.87550     -0.01720         0.000373      0.001152     -0.003712
      1.97866     26.23809     -1.34802         0.001297     -0.002932     -0.000798
      6.94341     14.29984      5.13715        -0.003677     -0.002248      0.001419
      5.90747      9.55388      1.92958        -0.002395     -0.000235      0.001050
      2.97434     14.56747      1.71954         0.001183     -0.004025      0.000112
      0.94968     25.91409      0.59860        -0.000242     -0.002320     -0.000191
      1.97602     30.66543      3.80567        -0.001600     -0.003043      0.000618
      2.97063      9.61486      3.40111         0.000379     -0.000219     -0.001131
      7.90281     25.97364      2.06987         0.000456      0.001226     -0.002161
      0.94583     30.98778      1.85914        -0.001309      0.003075     -0.000623
      4.00017      9.29145      5.34754         0.000244     -0.002040      0.002915
      4.00180     14.88958     -0.22824         0.003752      0.001215     -0.001528
      7.04570      0.97355      0.87555         0.004813      0.004564      0.000158
      8.35268      1.40147      2.97409         0.005931     -0.001723      0.006236
      8.36585     22.77610      2.15443         0.005337      0.001062      0.001613
      6.48495     17.49813      5.05556        -0.009133     -0.000600      0.002677
      6.47333      6.67793      0.06987        -0.002385      0.002368      0.004108
      2.82703     23.46989      0.83892        -0.002887     -0.002131      0.004085
      7.79079     17.07129      2.95626        -0.003919      0.002399     -0.002241
      7.78003      7.10581      2.16855        -0.003419     -0.000599      0.002003
      2.12620     17.33536     -0.46512         0.004029      0.002367     -0.005151
      1.52373     23.03883     -1.26100        -0.002025      0.000655      0.002325
      1.51341      1.14495      6.38840        -0.001232      0.004737     -0.002543
      3.42459      6.41532      3.48972         0.002659     -0.001661      0.000009
      7.06010     23.20303      4.25380         0.003705     -0.001334      0.000191
      2.81941      0.71260      4.28999        -0.003146      0.002209     -0.006634
      2.12157      6.84831      5.58960         0.003865     -0.003544      0.002611
      3.43144     17.76579      1.63407         0.003174      0.001282      0.001688
      6.90895      2.44010      0.68973        -0.001772      0.004849     -0.000520
      8.16433      2.85906      2.76675         0.002462     -0.001489     -0.003521
      8.17627     21.31842      2.36080         0.002498     -0.003250      0.000223
      6.67312     18.95583      4.84867        -0.000253      0.000788     -0.000766
      6.66216      5.22037      0.27723        -0.001416     -0.001590      0.000693
      2.97271     22.00346      1.02164         0.002471     -0.005195     -0.000134
      7.92862     18.53792      2.77171         0.001534      0.004742     -0.002737
      7.91746      5.63925      2.35411         0.000397     -0.002804      0.000229
      1.98245     18.80164     -0.64894        -0.000799      0.006919     -0.000241
      1.72024     21.58163     -1.05616        -0.000591     -0.002955      0.001335
      1.70957      2.60210      6.18161        -0.001321      0.001801     -0.002835
      3.22678      4.95831      3.69525         0.000982     -0.000510      0.004925
      6.92137     21.73637      4.43799        -0.000359     -0.004882      0.002050
      2.96311      2.17873      4.10458         0.002050      0.003161     -0.000472
      1.97468      5.38211      5.77299        -0.001913     -0.003944     -0.002595
      3.23622     19.22309      1.42846         0.001797      0.001632     -0.002941
      6.24493      2.40768      6.40821         0.001585      0.004955     -0.003311
      8.70857      3.76137      3.67468        -0.005287     -0.000388     -0.002738
      8.71818     20.41637      1.45105        -0.002213      0.002131      0.003059
      6.12815     20.38297     -1.07830         0.002848     -0.001972     -0.002717
      6.12086      3.79282      6.20361         0.002123      0.001940      0.002067
      3.64195     21.51184      2.13674        -0.000481      0.001674      0.000145
      8.59354     19.03119      1.65494         0.001293      0.001659     -0.004745
      8.58400      5.14652      3.47016        -0.001993     -0.001128      0.002602
      1.31540     18.76796      5.07063        -0.001564     -0.000000     -0.003291
      1.18369     20.15275      4.86856         0.002542      0.004282      0.003238
      1.17054      4.03208      0.25535         0.002198      0.001323     -0.000834
      3.76429      4.05370      2.78540        -0.004873     -0.000827      0.003085
      6.25327     21.76824     -1.28183         0.001878     -0.000500      0.001781
      3.63187      2.66907      2.98863         0.001491      0.005191     -0.002665
      1.30421      5.41681      0.05305         0.000005     -0.001882      0.001332
      3.77487     20.12701      2.33819        -0.004184     -0.003301     -0.002430
      8.13059     31.88201     -0.60099         0.001536      0.000155     -0.000678
      8.13865     25.01531      3.05981        -0.002037     -0.003288     -0.003590
      6.70952     15.25945      4.14806         0.001808      0.006142      0.004119
      6.70182      8.91763      0.97349         0.002525     -0.000693     -0.002553
      1.74577     25.27958     -0.35722         0.001211     -0.002624     -0.004981
      3.20814     15.52547      0.72875        -0.002069      0.003058     -0.001303
      1.74074     31.62352      2.81526         0.002221      0.000534      0.001527
      3.20364      8.65670      4.39227        -0.000103     -0.001963     -0.006546
      7.47391      3.33730      1.62700        -0.001804      0.000085      0.003216
      7.48614     20.83948      3.50026        -0.001562      0.003198     -0.002238
      7.36385     19.43467      3.70942         0.003686     -0.001001      0.001694
      7.35225      4.74208      1.41692         0.002041     -0.001146     -0.000630
      2.41312     21.10472      0.08258         0.000447      0.001695     -0.003399
      2.54279     19.70009      0.28986        -0.002296     -0.002089      0.004170
      2.40303      3.07798      5.04260         0.002988      0.003934      0.002855
      2.53355      4.48251      4.83428        -0.001840     -0.003083     -0.000782
      0.45652     28.71435     -2.18813        -0.005826      0.000336     -0.003953
      9.42178     28.44989      1.22877        -0.004741      0.004777     -0.001059
      4.49375     12.09117      2.56012        -0.001076     -0.002221     -0.004912
      5.41748     12.35275     -0.85913         0.001732     -0.002314      0.000849
      4.28988      4.44380      1.91404         0.000796     -0.002853     -0.001184
      9.00642     18.31761      0.94140         0.002067      0.000958      0.000422
      8.99835      5.86029      4.18267         0.001638     -0.001128     -0.000166
      5.83160      1.69395      5.69517        -0.002292     -0.000166     -0.000113
      5.83881     22.48162     -0.56895        -0.000198     -0.001659     -0.000777
      5.60320     19.99076     -0.20758         0.001322      0.001021      0.002214
      0.65844     20.54373      3.99740        -0.000487     -0.002359     -0.002085
      0.64410      3.64220      1.12618        -0.001477      0.001112      0.004194
      9.24121     20.80908      0.57938         0.000764     -0.002588     -0.003419
      0.89461      6.13213      0.76676        -0.001732     -0.001800      0.001133
      0.90522     18.05315      4.35661        -0.000428      0.003131      0.001770
      4.05203     22.22636      2.85099         0.001517     -0.001738     -0.000196
      4.30123     19.73638      3.20878         0.001015      0.001333      0.002875
      5.59768      4.18514      5.33188        -0.000929     -0.001711     -0.004143
      9.23301      3.36951      4.54584         0.000390      0.000142      0.002551
      4.04235      1.95375      2.27548         0.001380     -0.000339     -0.000697
      7.48717     14.90334     -0.76210        -0.001067      0.002089     -0.001919
      2.42644      9.53416      2.46468         0.002116     -0.000028      0.004809
      4.40720     15.29254     -1.14884        -0.002953     -0.001634     -0.000293
      0.54434     25.51009      1.51863         0.000905      0.001321      0.003013
      2.51924     31.27115     -2.09339        -0.001034      0.001900     -0.003346
      4.40490      9.41286     -0.56780        -0.002327      0.002268      0.000753
      9.33435     31.65429     -2.47635        -0.003950     -0.001558      0.001202
      7.35823     25.89290      1.13376         0.001163     -0.001413      0.002520
      0.53933     31.39106      0.93905         0.004008     -0.003501      0.002838
      5.50640     15.03202      2.27274         0.001680     -0.001737     -0.001756
      7.48195      9.26902      5.88183        -0.001749     -0.000816      0.002568
      7.35227     31.00122      1.32454         0.002394      0.000956     -0.004264
      5.50138      9.15073      2.84966         0.001233      0.000577      0.002896
      2.43124     14.64868      2.65640         0.000113     -0.000026     -0.000028
      2.52373     25.63266      4.55083        -0.002193     -0.000153      0.004571
      9.33977     25.77226     -1.90039        -0.001365      0.001134      0.003032
      9.17276     29.99231     -1.15769         0.000332      0.003605      0.000559
      8.53304     29.78011      0.03809        -0.000564      0.002724     -0.000500
      9.17574     26.90817      3.61549         0.000748     -0.001396      0.000774
      5.66789     13.36967      3.59097         0.000574      0.003751      0.000634
      6.30415     11.02003      0.33201        -0.000430     -0.004436      0.003546
      1.34328     27.38110     -0.99880         0.001118     -0.004644      0.004779
      6.30770     13.15741      4.78670         0.001866      0.004319     -0.002844
      5.66530     10.81077      1.52881        -0.000545     -0.002609      0.000805
      3.60733     13.42331      1.36961        -0.001086      0.004796      0.000169
      0.70454     27.17045      0.19786         0.001404     -0.001018      0.001936
      1.34264     29.52137      3.45627         0.000816      0.001365     -0.000791
      3.60628     10.75794      3.74964        -0.002022     -0.004021      0.004361
      8.53570     27.11790      2.41935         0.001830     -0.001998      0.005032
      0.70329     29.73088      2.25984         0.001143      0.003181     -0.003205
      4.24515     10.54770      4.94627        -0.000284     -0.003691      0.000532
      4.24513     13.63276      0.17229        -0.002979      0.005311     -0.000846
      7.77199      0.54235      2.01432        -0.001049     -0.002651     -0.000007
      7.78533     23.63508      3.11457         0.001231      0.000406      0.002395
      7.06431     16.63934      4.09469         0.003236     -0.000510     -0.003630
      7.05480      7.53731      1.02911        -0.001042      0.001500      0.001362
      2.10228     23.90003     -0.30142        -0.000529     -0.003103     -0.000907
      2.85325     16.90534      0.67373        -0.002436     -0.002470     -0.000508
      2.09200      0.28364      5.42904         0.001169      0.000675     -0.000380
      2.84664      7.27729      4.44880        -0.001581      0.000859      0.002714
      6.57431      0.16715      0.08012         0.001726     -0.003300     -0.001144
      8.99546      0.95750      3.92447        -0.000725     -0.000617     -0.003773
      9.00948     23.22002      1.20468         0.000546      0.001948      0.002404
      5.84177     17.57907     -0.82918        -0.000282     -0.003556      0.000418
      5.83074      6.59661      5.95550        -0.003567      0.001555     -0.001925
      3.29103     24.27665      1.63838        -0.002575      0.000033     -0.002873
      8.26164     16.26538      2.15997        -0.003782     -0.000882     -0.001788
      8.25054      7.91190      2.96495        -0.005412     -0.000059     -0.000257
      1.65905     16.52825     -1.26247         0.005320      0.000902      0.001825
      0.87772     22.95529      4.62592        -0.000574      0.003482     -0.000502
      0.86637      1.22881      0.50236        -0.003109     -0.003355      0.000582
      4.07228      6.85573      2.54107        -0.002617      0.003083      0.003630
      6.58967     24.53377     -1.78413         0.006011      0.001282     -0.001325
      3.28700     -0.09530      3.49370        -0.004494      0.001120      0.003822
      1.65739      8.18094     -0.44666         0.002447      0.000098     -0.003424
      4.07648     17.32349      2.58363         0.003765     -0.002064      0.000492
 -----------------------------------------------------------------------------------
    total drift:                               -0.009757      0.027710     -0.016708


--------------------------------------------------------------------------------------------------------



  FREE ENERGIE OF THE ION-ELECTRON SYSTEM (eV)
  ---------------------------------------------------
  free  energy   TOTEN  =     -1162.96148409 eV

  energy  without entropy=    -1162.96148409  energy(sigma->0) =    -1162.96148409
 


--------------------------------------------------------------------------------------------------------


    POTLOK:  cpu time    0.1353: real time    0.1353


--------------------------------------------------------------------------------------------------------




--------------------------------------------------------------------------------------------------------


  
 reached required accuracy - stopping structural energy minimisation
 writing wavefunctions
     LOOP+:  cpu time  471.6935: real time  480.2051
    4ORBIT:  cpu time    0.0000: real time    0.0000

 total amount of memory used by VASP MPI-rank0   105558. kBytes
=======================================================================

   base      :      30000. kBytes
   nonlr-proj:       5928. kBytes
   fftplans  :       6177. kBytes
   grid      :      10566. kBytes
   one-center:        606. kBytes
   wavefun   :      52281. kBytes
 
  
  
 General timing and accounting informations for this job:
 ========================================================
  
                  Total CPU time used (sec):      542.173
                            User time (sec):      499.434
                          System time (sec):       42.739
                         Elapsed time (sec):      551.991
  
                   Maximum memory used (kb):     1054136.
                   Average memory used (kb):           0.
  
                          Minor page faults:       404056
                          Major page faults:            5
                 Voluntary context switches:        13251
