       N       E                     dE             d eps       ncg     rms          rms(c)
DAV:   1     0.451886050315E+04    0.45189E+04   -0.32011E+05 15360   0.164E+03
DAV:   2    -0.742580731865E+03   -0.52614E+04   -0.50433E+04 18720   0.366E+02
DAV:   3    -0.127104710225E+04   -0.52847E+03   -0.51900E+03 18272   0.126E+02
DAV:   4    -0.128995158099E+04   -0.18904E+02   -0.18720E+02 19680   0.271E+01
DAV:   5    -0.129065251087E+04   -0.70093E+00   -0.69987E+00 21856   0.481E+00    0.916E+01
DAV:   6    -0.158337503181E+04   -0.29272E+03   -0.34418E+03 24576   0.110E+02    0.253E+02
DAV:   7    -0.148005576815E+04    0.10332E+03   -0.31191E+02 18496   0.309E+01    0.167E+02
DAV:   8    -0.119823612734E+04    0.28182E+03   -0.54801E+02 23680   0.864E+01    0.612E+01
DAV:   9    -0.115934995678E+04    0.38886E+02   -0.49255E+02 22240   0.713E+01    0.368E+01
DAV:  10    -0.116009197361E+04   -0.74202E+00   -0.16067E+02 20416   0.219E+01    0.488E+01
DAV:  11    -0.117371770551E+04   -0.13626E+02   -0.39786E+02 22304   0.241E+01    0.695E+01
DAV:  12    -0.116320352635E+04    0.10514E+02   -0.36168E+02 21792   0.201E+01    0.540E+01
DAV:  13    -0.115866792113E+04    0.45356E+01   -0.23802E+02 20736   0.220E+01    0.476E+01
DAV:  14    -0.115466720557E+04    0.40007E+01   -0.14337E+02 21600   0.196E+01    0.442E+01
DAV:  15    -0.115341365440E+04    0.12536E+01   -0.11242E+02 21888   0.169E+01    0.378E+01
DAV:  16    -0.115103911478E+04    0.23745E+01   -0.20706E+01 21312   0.777E+00    0.158E+01
DAV:  17    -0.115446926104E+04   -0.34301E+01   -0.36366E+00 18144   0.334E+00    0.171E+01
DAV:  18    -0.115663524947E+04   -0.21660E+01   -0.17858E+00 18816   0.250E+00    0.167E+01
DAV:  19    -0.115746010631E+04   -0.82486E+00   -0.21587E-01 19328   0.123E+00    0.161E+01
DAV:  20    -0.115965427820E+04   -0.21942E+01   -0.87316E-01 18176   0.242E+00    0.144E+01
DAV:  21    -0.116325747384E+04   -0.36032E+01   -0.28816E+00 18496   0.452E+00    0.102E+01
DAV:  22    -0.116465817223E+04   -0.14007E+01   -0.31381E+00 19744   0.510E+00    0.814E+00
DAV:  23    -0.116469819250E+04   -0.40020E-01   -0.57654E-01 19520   0.179E+00    0.932E+00
DAV:  24    -0.116462041849E+04    0.77774E-01   -0.42758E-02 19232   0.872E-01    0.874E+00
DAV:  25    -0.116419313282E+04    0.42729E+00   -0.14698E+00 23200   0.426E+00    0.517E+00
DAV:  26    -0.116418625935E+04    0.68735E-02   -0.20161E-01 20000   0.170E+00    0.377E+00
DAV:  27    -0.116411882222E+04    0.67437E-01   -0.10868E-01 20608   0.149E+00    0.323E+00
DAV:  28    -0.116406642627E+04    0.52396E-01   -0.79629E-02 21376   0.131E+00    0.286E+00
DAV:  29    -0.116397290256E+04    0.93524E-01   -0.10973E-01 23264   0.179E+00    0.192E+00
DAV:  30    -0.116395360691E+04    0.19296E-01   -0.24546E-01 20512   0.129E+00    0.220E+00
DAV:  31    -0.116394985579E+04    0.37511E-02   -0.56638E-02 18336   0.656E-01    0.128E+00
DAV:  32    -0.116394507687E+04    0.47789E-02   -0.13022E-02 20480   0.451E-01    0.161E+00
DAV:  33    -0.116393997614E+04    0.51007E-02   -0.18034E-02 21664   0.527E-01    0.793E-01
DAV:  34    -0.116393879115E+04    0.11850E-02   -0.36037E-02 21952   0.520E-01    0.741E-01
DAV:  35    -0.116393979413E+04   -0.10030E-02   -0.66558E-03 21504   0.200E-01    0.939E-01
DAV:  36    -0.116393964143E+04    0.15270E-03   -0.13341E-03 20672   0.134E-01    0.115E+00
DAV:  37    -0.116393989970E+04   -0.25826E-03   -0.11157E-03 20576   0.122E-01    0.107E+00
DAV:  38    -0.116393818703E+04    0.17127E-02   -0.28102E-03 23744   0.267E-01    0.588E-01
DAV:  39    -0.116393743489E+04    0.75215E-03   -0.63336E-03 21952   0.227E-01    0.177E-01
DAV:  40    -0.116393752893E+04   -0.94046E-04   -0.14879E-03 19392   0.102E-01    0.173E-01
DAV:  41    -0.116393745693E+04    0.72000E-04   -0.50745E-04 19712   0.573E-02    0.139E-01
DAV:  42    -0.116393741590E+04    0.41032E-04   -0.23212E-04 21600   0.471E-02    0.872E-02
DAV:  43    -0.116393741708E+04   -0.11772E-05   -0.88739E-05 19968   0.234E-02    0.104E-01
DAV:  44    -0.116393741996E+04   -0.28796E-05   -0.67611E-05 20032   0.218E-02    0.957E-02
DAV:  45    -0.116393742451E+04   -0.45529E-05   -0.12894E-05 18336   0.167E-02    0.654E-02
DAV:  46    -0.116393742512E+04   -0.61517E-06   -0.66548E-05 20000   0.245E-02    0.544E-02
DAV:  47    -0.116393741708E+04    0.80462E-05   -0.23661E-05 19968   0.180E-02    0.274E-02
DAV:  48    -0.116393741516E+04    0.19132E-05   -0.22894E-05 18336   0.112E-02    0.169E-02
DAV:  49    -0.116393741709E+04   -0.19224E-05   -0.72278E-06 14272   0.744E-03    0.163E-02
DAV:  50    -0.116393741671E+04    0.38142E-06   -0.94197E-06 15328   0.757E-03
   1 F= -.11796385E+04 E0= -.11796259E+04  d E =-.117964E+04  mag=    -0.0122
