 vasp.5.4.4.18Apr17-6-g9f103f2a35 (build May 22 2020 17:00:04) complex          
  
 executed on           IFC15_impi date 2020.10.03  19:11:08
 running on  128 total cores
 distrk:  each k-point on  128 cores,    1 groups
 distr:  one band on NCORES_PER_BAND=   4 cores,   32 groups


--------------------------------------------------------------------------------------------------------


 INCAR:
 POTCAR:    PAW_PBE C 08Apr2002                   
 POTCAR:    PAW_PBE Co 02Aug2007                  
 POTCAR:    PAW_PBE H 15Jun2001                   
 POTCAR:    PAW_PBE N 08Apr2002                   
 POTCAR:    PAW_PBE O 08Apr2002                   

 ----------------------------------------------------------------------------- 
|                                                                             |
|           W    W    AA    RRRRR   N    N  II  N    N   GGGG   !!!           |
|           W    W   A  A   R    R  NN   N  II  NN   N  G    G  !!!           |
|           W    W  A    A  R    R  N N  N  II  N N  N  G       !!!           |
|           W WW W  AAAAAA  RRRRR   N  N N  II  N  N N  G  GGG   !            |
|           WW  WW  A    A  R   R   N   NN  II  N   NN  G    G                |
|           W    W  A    A  R    R  N    N  II  N    N   GGGG   !!!           |
|                                                                             |
|      For optimal performance we recommend to set                            |
|        NCORE= 4 - approx SQRT( number of cores)                             |
|      NCORE specifies how many cores store one orbital (NPAR=cpu/NCORE).     |
|      This setting can  greatly improve the performance of VASP for DFT.     |
|      The default,   NCORE=1            might be grossly inefficient         |
|      on modern multi-core architectures or massively parallel machines.     |
|      Do your own testing !!!!                                               |
|      Unfortunately you need to use the default for GW and RPA calculations. |
|      (for HF NCORE is supported but not extensively tested yet)             |
|                                                                             |
 ----------------------------------------------------------------------------- 

 POTCAR:    PAW_PBE C 08Apr2002                   
   VRHFIN =C: s2p2                                                              
   LEXCH  = PE                                                                  
   EATOM  =   147.1560 eV,   10.8157 Ry                                         
                                                                                
   TITEL  = PAW_PBE C 08Apr2002                                                 
   LULTRA =        F    use ultrasoft PP ?                                      
   IUNSCR =        1    unscreen: 0-lin 1-nonlin 2-no                           
   RPACOR =    1.200    partial core radius                                     
   POMASS =   12.011; ZVAL   =    4.000    mass and valenz                      
   RCORE  =    1.500    outmost cutoff radius                                   
   RWIGS  =    1.630; RWIGS  =    0.863    wigner-seitz radius (au A)           
   ENMAX  =  400.000; ENMIN  =  300.000 eV                                      
   ICORE  =        2    local potential                                         
   LCOR   =        T    correct aug charges                                     
   LPAW   =        T    paw PP                                                  
   EAUG   =  644.873                                                            
   DEXC   =    0.000                                                            
   RMAX   =    1.529    core radius for proj-oper                               
   RAUG   =    1.300    factor for augmentation sphere                          
   RDEP   =    1.501    radius for radial grids                                 
   RDEPT  =    1.300    core radius for aug-charge                              
                                                                                
   Atomic configuration                                                         
    4 entries                                                                   
     n  l   j            E        occ.                                          
     1  0  0.50      -273.3789   2.0000                                         
     2  0  0.50       -13.7508   2.0000                                         
     2  1  0.50        -5.2854   2.0000                                         
     3  2  1.50        -5.4423   0.0000                                         
   Description                                                                  
     l       E           TYP  RCUT    TYP  RCUT                                 
     0    -13.7508458     23  1.200                                             
     0     -8.2022199     23  1.200                                             
     1     -5.2854383     23  1.500                                             
     1     34.0145650     23  1.500                                             
     2     -5.4423304      7  1.500                                             
  local pseudopotential read in
  partial core-charges read in
  partial kinetic energy density read in
  atomic valenz-charges read in
  non local Contribution for L=           0  read in
    real space projection operators read in
  non local Contribution for L=           0  read in
    real space projection operators read in
  non local Contribution for L=           1  read in
    real space projection operators read in
  non local Contribution for L=           1  read in
    real space projection operators read in
    PAW grid and wavefunctions read in
 
   number of l-projection  operators is LMAX  =           4
   number of lm-projection operators is LMMAX =           8
 
 POTCAR:    PAW_PBE Co 02Aug2007                  
   VRHFIN =Co: d8 s1                                                            
   LEXCH  = PE                                                                  
   EATOM  =   813.3670 eV,   59.7808 Ry                                         
                                                                                
   TITEL  = PAW_PBE Co 02Aug2007                                                
   LULTRA =        F    use ultrasoft PP ?                                      
   IUNSCR =        1    unscreen: 0-lin 1-nonlin 2-no                           
   RPACOR =    2.000    partial core radius                                     
   POMASS =   58.933; ZVAL   =    9.000    mass and valenz                      
   RCORE  =    2.300    outmost cutoff radius                                   
   RWIGS  =    2.460; RWIGS  =    1.302    wigner-seitz radius (au A)           
   ENMAX  =  267.968; ENMIN  =  200.976 eV                                      
   RCLOC  =    1.203    cutoff for local pot                                    
   LCOR   =        T    correct aug charges                                     
   LPAW   =        T    paw PP                                                  
   EAUG   =  477.818                                                            
   DEXC   =    0.000                                                            
   RMAX   =    2.360    core radius for proj-oper                               
   RAUG   =    1.300    factor for augmentation sphere                          
   RDEP   =    2.393    radius for radial grids                                 
   RDEPT  =    1.864    core radius for aug-charge                              
                                                                                
   Atomic configuration                                                         
    9 entries                                                                   
     n  l   j            E        occ.                                          
     1  0  0.50     -7587.6674   2.0000                                         
     2  0  0.50      -893.6084   2.0000                                         
     2  1  1.50      -764.5805   6.0000                                         
     3  0  0.50       -97.5973   2.0000                                         
     3  1  1.50       -60.9648   6.0000                                         
     3  2  2.50        -4.2382   8.0000                                         
     4  0  0.50        -4.3746   1.0000                                         
     4  1  1.50        -4.0817   0.0000                                         
     4  3  2.50        -1.3606   0.0000                                         
   Description                                                                  
     l       E           TYP  RCUT    TYP  RCUT                                 
     2     -4.2382362     23  2.300                                             
     2     -5.5988188     23  2.300                                             
     0     -4.3745797     23  2.300                                             
     0      5.7660125     23  2.300                                             
     1     -2.7211652     23  2.300                                             
     1     16.9860234     23  2.300                                             
  local pseudopotential read in
  partial core-charges read in
  partial kinetic energy density read in
  atomic valenz-charges read in
  non local Contribution for L=           2  read in
    real space projection operators read in
  non local Contribution for L=           2  read in
    real space projection operators read in
  non local Contribution for L=           0  read in
    real space projection operators read in
  non local Contribution for L=           0  read in
    real space projection operators read in
  non local Contribution for L=           1  read in
    real space projection operators read in
  non local Contribution for L=           1  read in
    real space projection operators read in
    PAW grid and wavefunctions read in
 
   number of l-projection  operators is LMAX  =           6
   number of lm-projection operators is LMMAX =          18
 
 POTCAR:    PAW_PBE H 15Jun2001                   
   VRHFIN =H: ultrasoft test                                                    
   LEXCH  = PE                                                                  
   EATOM  =    12.4884 eV,    0.9179 Ry                                         
                                                                                
   TITEL  = PAW_PBE H 15Jun2001                                                 
   LULTRA =        F    use ultrasoft PP ?                                      
   IUNSCR =        0    unscreen: 0-lin 1-nonlin 2-no                           
   RPACOR =    0.000    partial core radius                                     
   POMASS =    1.000; ZVAL   =    1.000    mass and valenz                      
   RCORE  =    1.100    outmost cutoff radius                                   
   RWIGS  =    0.700; RWIGS  =    0.370    wigner-seitz radius (au A)           
   ENMAX  =  250.000; ENMIN  =  200.000 eV                                      
   RCLOC  =    0.701    cutoff for local pot                                    
   LCOR   =        T    correct aug charges                                     
   LPAW   =        T    paw PP                                                  
   EAUG   =  400.000                                                            
   RMAX   =    1.123    core radius for proj-oper                               
   RAUG   =    1.200    factor for augmentation sphere                          
   RDEP   =    1.112    radius for radial grids                                 
   RDEPT  =    0.926    core radius for aug-charge                              
                                                                                
   Atomic configuration                                                         
    2 entries                                                                   
     n  l   j            E        occ.                                          
     1  0  0.50        -6.4927   1.0000                                         
     2  1  0.50        -3.4015   0.0000                                         
   Description                                                                  
     l       E           TYP  RCUT    TYP  RCUT                                 
     0     -6.4927494     23  1.100                                             
     0      6.8029130     23  1.100                                             
     1     -4.0817478     23  1.100                                             
  local pseudopotential read in
  atomic valenz-charges read in
  non local Contribution for L=           0  read in
    real space projection operators read in
  non local Contribution for L=           0  read in
    real space projection operators read in
  non local Contribution for L=           1  read in
    real space projection operators read in
    PAW grid and wavefunctions read in
 
   number of l-projection  operators is LMAX  =           3
   number of lm-projection operators is LMMAX =           5
 
 POTCAR:    PAW_PBE N 08Apr2002                   
   VRHFIN =N: s2p3                                                              
   LEXCH  = PE                                                                  
   EATOM  =   264.5486 eV,   19.4438 Ry                                         
                                                                                
   TITEL  = PAW_PBE N 08Apr2002                                                 
   LULTRA =        F    use ultrasoft PP ?                                      
   IUNSCR =        1    unscreen: 0-lin 1-nonlin 2-no                           
   RPACOR =    1.200    partial core radius                                     
   POMASS =   14.001; ZVAL   =    5.000    mass and valenz                      
   RCORE  =    1.500    outmost cutoff radius                                   
   RWIGS  =    1.400; RWIGS  =    0.741    wigner-seitz radius (au A)           
   ENMAX  =  400.000; ENMIN  =  300.000 eV                                      
   ICORE  =        2    local potential                                         
   LCOR   =        T    correct aug charges                                     
   LPAW   =        T    paw PP                                                  
   EAUG   =  627.112                                                            
   DEXC   =    0.000                                                            
   RMAX   =    1.529    core radius for proj-oper                               
   RAUG   =    1.300    factor for augmentation sphere                          
   RDEP   =    1.514    radius for radial grids                                 
   RDEPT  =    1.338    core radius for aug-charge                              
                                                                                
   Atomic configuration                                                         
    4 entries                                                                   
     n  l   j            E        occ.                                          
     1  0  0.50      -384.7179   2.0000                                         
     2  0  0.50       -18.5828   2.0000                                         
     2  1  0.50        -7.0898   3.0000                                         
     3  2  1.50        -6.8029   0.0000                                         
   Description                                                                  
     l       E           TYP  RCUT    TYP  RCUT                                 
     0    -18.5828119     23  1.200                                             
     0    -13.5018863     23  1.200                                             
     1     -7.0897853     23  1.500                                             
     1      9.5240782     23  1.500                                             
     2     -6.8029130      7  1.500                                             
  local pseudopotential read in
  partial core-charges read in
  partial kinetic energy density read in
  atomic valenz-charges read in
  non local Contribution for L=           0  read in
    real space projection operators read in
  non local Contribution for L=           0  read in
    real space projection operators read in
  non local Contribution for L=           1  read in
    real space projection operators read in
  non local Contribution for L=           1  read in
    real space projection operators read in
    PAW grid and wavefunctions read in
 
   number of l-projection  operators is LMAX  =           4
   number of lm-projection operators is LMMAX =           8
 
 POTCAR:    PAW_PBE O 08Apr2002                   
   VRHFIN =O: s2p4                                                              
   LEXCH  = PE                                                                  
   EATOM  =   432.3788 eV,   31.7789 Ry                                         
                                                                                
   TITEL  = PAW_PBE O 08Apr2002                                                 
   LULTRA =        F    use ultrasoft PP ?                                      
   IUNSCR =        1    unscreen: 0-lin 1-nonlin 2-no                           
   RPACOR =    1.200    partial core radius                                     
   POMASS =   16.000; ZVAL   =    6.000    mass and valenz                      
   RCORE  =    1.520    outmost cutoff radius                                   
   RWIGS  =    1.550; RWIGS  =    0.820    wigner-seitz radius (au A)           
   ENMAX  =  400.000; ENMIN  =  300.000 eV                                      
   ICORE  =        2    local potential                                         
   LCOR   =        T    correct aug charges                                     
   LPAW   =        T    paw PP                                                  
   EAUG   =  605.392                                                            
   DEXC   =    0.000                                                            
   RMAX   =    1.553    core radius for proj-oper                               
   RAUG   =    1.300    factor for augmentation sphere                          
   RDEP   =    1.550    radius for radial grids                                 
   RDEPT  =    1.329    core radius for aug-charge                              
                                                                                
   Atomic configuration                                                         
    4 entries                                                                   
     n  l   j            E        occ.                                          
     1  0  0.50      -514.6923   2.0000                                         
     2  0  0.50       -23.9615   2.0000                                         
     2  1  0.50        -9.0305   4.0000                                         
     3  2  1.50        -9.5241   0.0000                                         
   Description                                                                  
     l       E           TYP  RCUT    TYP  RCUT                                 
     0    -23.9615318     23  1.200                                             
     0     -9.5240782     23  1.200                                             
     1     -9.0304911     23  1.520                                             
     1      8.1634956     23  1.520                                             
     2     -9.5240782      7  1.500                                             
  local pseudopotential read in
  partial core-charges read in
  partial kinetic energy density read in
  kinetic energy density of atom read in
  atomic valenz-charges read in
  non local Contribution for L=           0  read in
    real space projection operators read in
  non local Contribution for L=           0  read in
    real space projection operators read in
  non local Contribution for L=           1  read in
    real space projection operators read in
  non local Contribution for L=           1  read in
    real space projection operators read in
    PAW grid and wavefunctions read in
 
   number of l-projection  operators is LMAX  =           4
   number of lm-projection operators is LMMAX =           8
 
 Optimization of the real space projectors (new method)

 maximal supplied QI-value         = 25.13
 optimisation between [QCUT,QGAM] = [ 12.32, 24.88] = [ 42.47,173.37] Ry 
 Optimized for a Real-space Cutoff    1.06 Angstroem

   l    n(q)    QCUT    max X(q) W(low)/X(q) W(high)/X(q)  e(spline) 
   0      8    12.315   115.676    0.34E-03    0.18E-03    0.23E-06
   0      8    12.315    87.132    0.34E-03    0.18E-03    0.22E-06
   1      7    12.315     4.429    0.45E-03    0.12E-03    0.18E-06
   1      7    12.315     2.733    0.35E-03    0.97E-04    0.15E-06
 Optimization of the real space projectors (new method)

 maximal supplied QI-value         = 16.25
 optimisation between [QCUT,QGAM] = [ 12.51, 25.03] = [ 43.85,175.40] Ry 
 Optimized for a Real-space Cutoff    1.31 Angstroem

   l    n(q)    QCUT    max X(q) W(low)/X(q) W(high)/X(q)  e(spline) 
   2      9    12.514    65.824    0.30E-03    0.46E-03    0.43E-06
   2      9    12.514    61.429    0.31E-03    0.46E-03    0.44E-06
   0     10    12.514    56.174    0.90E-04    0.33E-03    0.30E-06
   0     10    12.514    31.263    0.81E-04    0.30E-03    0.28E-06
   1      9    12.514    19.828    0.38E-03    0.65E-04    0.24E-06
   1      9    12.514    15.139    0.32E-03    0.60E-04    0.20E-06
 Optimization of the real space projectors (new method)

 maximal supplied QI-value         = 34.20
 optimisation between [QCUT,QGAM] = [ 12.31, 24.97] = [ 42.46,174.58] Ry 
 Optimized for a Real-space Cutoff    1.00 Angstroem

   l    n(q)    QCUT    max X(q) W(low)/X(q) W(high)/X(q)  e(spline) 
   0      7    12.313    19.460    0.14E-03    0.42E-03    0.16E-06
   0      7    12.313    12.209    0.12E-03    0.40E-03    0.16E-06
   1      7    12.313     4.655    0.33E-03    0.59E-03    0.89E-07
 Optimization of the real space projectors (new method)

 maximal supplied QI-value         = 25.13
 optimisation between [QCUT,QGAM] = [ 12.32, 24.88] = [ 42.47,173.37] Ry 
 Optimized for a Real-space Cutoff    1.20 Angstroem

   l    n(q)    QCUT    max X(q) W(low)/X(q) W(high)/X(q)  e(spline) 
   0      9    12.315    79.467    0.14E-03    0.22E-04    0.37E-06
   0      9    12.315    66.151    0.14E-03    0.23E-04    0.36E-06
   1      8    12.315    22.077    0.30E-03    0.54E-03    0.45E-06
   1      8    12.315    15.894    0.30E-03    0.55E-03    0.45E-06
 Optimization of the real space projectors (new method)

 maximal supplied QI-value         = 24.76
 optimisation between [QCUT,QGAM] = [ 12.38, 25.00] = [ 42.90,175.06] Ry 
 Optimized for a Real-space Cutoff    1.13 Angstroem

   l    n(q)    QCUT    max X(q) W(low)/X(q) W(high)/X(q)  e(spline) 
   0      8    12.378    20.381    0.16E-03    0.54E-05    0.27E-06
   0      8    12.378    15.268    0.17E-03    0.61E-05    0.29E-06
   1      8    12.378     5.964    0.38E-03    0.23E-03    0.28E-06
   1      8    12.378     5.382    0.33E-03    0.20E-03    0.25E-06
  PAW_PBE C 08Apr2002                   :
 energy of atom  1       EATOM= -147.1560
 kinetic energy error for atom=    0.0057 (will be added to EATOM!!)
  PAW_PBE Co 02Aug2007                  :
 energy of atom  2       EATOM= -813.3670
 kinetic energy error for atom=    0.0018 (will be added to EATOM!!)
  PAW_PBE H 15Jun2001                   :
 energy of atom  3       EATOM=  -12.4884
 kinetic energy error for atom=    0.0004 (will be added to EATOM!!)
  PAW_PBE N 08Apr2002                   :
 energy of atom  4       EATOM= -264.5486
 kinetic energy error for atom=    0.0103 (will be added to EATOM!!)
  PAW_PBE O 08Apr2002                   :
 energy of atom  5       EATOM= -432.3788
 kinetic energy error for atom=    0.0168 (will be added to EATOM!!)
 
 
 POSCAR:  Co_F                                   
  positions in direct lattice
  velocities in cartesian coordinates
 exchange correlation table for  LEXCH =        8
   RHO(1)=    0.500       N(1)  =     2000
   RHO(2)=  100.500       N(2)  =     4000
 


--------------------------------------------------------------------------------------------------------


 ion  position               nearest neighbor table
   1  0.748  0.941  0.055- 107 1.08 117 1.34  65 1.41
   2  0.675  0.922  0.353- 112 1.08 118 1.35  65 1.40
   3  0.926  0.785  0.903- 116 1.08 119 1.35  66 1.40
   4  0.757  0.443  0.529- 110 1.08 120 1.34  67 1.41
   5  0.649  0.291  0.075- 111 1.08 121 1.34  68 1.40
   6  0.333  0.824  0.075- 115 1.08 122 1.35  69 1.40
   7  0.834  0.423  0.825- 101 1.08 123 1.35  67 1.40
   8  0.580  0.287  0.378- 113 1.08 124 1.35  68 1.40
   9  0.345  0.454  0.297- 114 1.08 125 1.34  70 1.40
  10  0.257  0.803  0.370- 104 1.08 126 1.34  69 1.41
  11  0.148  0.955  0.825- 105 1.08 127 1.34  71 1.40
  12  0.176  0.324  0.547- 102 1.08 128 1.35  72 1.40
  13  0.843  0.792  0.603- 108 1.08 129 1.34  66 1.40
  14  0.079  0.960  0.522- 109 1.08 130 1.35  71 1.40
  15  0.249  0.305  0.845- 106 1.08 131 1.34  72 1.41
  16  0.427  0.461  0.997- 103 1.08 132 1.35  70 1.40
  17  0.528  0.022  0.068- 141 1.23 133 1.41  33 1.48
  18  0.630  0.013  0.401- 142 1.23 133 1.42  34 1.48
  19  0.947  0.703  0.581- 143 1.23 134 1.42  35 1.47
  20  0.875  0.513  0.885- 144 1.23 135 1.42  36 1.48
  21  0.547  0.201  0.070- 145 1.23 136 1.42  37 1.47
  22  0.473  0.723  0.347- 146 1.23 137 1.41  38 1.48
  23  0.973  0.524  0.552- 147 1.23 135 1.41  39 1.48
  24  0.662  0.193  0.400- 148 1.23 136 1.41  40 1.47
  25  0.338  0.554  0.987- 149 1.23 138 1.41  41 1.47
  26  0.374  0.734  0.014- 150 1.23 137 1.42  42 1.48
  27  0.046  0.045  0.830- 151 1.23 139 1.42  43 1.47
  28  0.131  0.233  0.500- 152 1.23 140 1.42  44 1.48
  29  0.837  0.692  0.912- 153 1.23 134 1.41  45 1.47
  30  0.161  0.053  0.500- 154 1.23 139 1.41  46 1.47
  31  0.029  0.224  0.833- 155 1.23 140 1.41  47 1.48
  32  0.447  0.544  0.318- 156 1.23 138 1.42  48 1.47
  33  0.526  0.067  0.075-  49 1.39  73 1.41  17 1.48
  34  0.633  0.059  0.399-  50 1.39  73 1.41  18 1.48
  35  0.953  0.657  0.577-  51 1.39  74 1.41  19 1.47
  36  0.867  0.559  0.890-  52 1.39  75 1.41  20 1.48
  37  0.542  0.155  0.073-  53 1.39  76 1.41  21 1.47
  38  0.473  0.677  0.334-  54 1.39  77 1.41  22 1.48
  39  0.973  0.569  0.565-  55 1.39  75 1.41  23 1.48
  40  0.653  0.147  0.397-  56 1.39  76 1.41  24 1.47
  41  0.345  0.600  0.998-  57 1.39  78 1.41  25 1.47
  42  0.367  0.688  0.009-  58 1.39  77 1.41  26 1.48
  43  0.042  0.091  0.827-  59 1.39  79 1.41  27 1.47
  44  0.134  0.187  0.502-  60 1.39  80 1.41  28 1.48
  45  0.845  0.646  0.901-  61 1.39  74 1.41  29 1.47
  46  0.153  0.099  0.503-  62 1.39  79 1.41  30 1.47
  47  0.027  0.179  0.826-  63 1.39  80 1.41  31 1.48
  48  0.454  0.589  0.322-  64 1.39  78 1.41  32 1.47
  49  0.467  0.093  0.920-  88 1.08  33 1.39  53 1.40
  50  0.681  0.077  0.559-  99 1.09  34 1.39  56 1.40
  51  0.020  0.640  0.419-  93 1.09  35 1.39  55 1.40
  52  0.818  0.575  0.053-  90 1.09  36 1.39  61 1.40
  53  0.474  0.137  0.919-  98 1.09  37 1.39  49 1.40
  54  0.530  0.650  0.485-  96 1.08  38 1.39  64 1.40
  55  0.030  0.597  0.414-  86 1.08  39 1.39  51 1.40
  56  0.692  0.121  0.558-  87 1.08  40 1.39  50 1.40
  57  0.306  0.627  0.841-  95 1.08  41 1.39  58 1.40
  58  0.318  0.671  0.846-  91 1.09  42 1.39  57 1.40
  59  0.974  0.109  0.982-  92 1.09  43 1.39  63 1.40
  60  0.182  0.169  0.341-  85 1.09  44 1.39  62 1.40
  61  0.806  0.619  0.058-  89 1.08  45 1.39  52 1.40
  62  0.192  0.125  0.343- 100 1.08  46 1.39  60 1.40
  63  0.967  0.153  0.981-  94 1.08  47 1.39  59 1.40
  64  0.520  0.606  0.480-  97 1.09  48 1.39  54 1.40
  65  0.653  0.955  0.211-   2 1.40   1 1.41 133 1.42
  66  0.875  0.762  0.755-  13 1.40   3 1.40 134 1.42
  67  0.853  0.456  0.686-   7 1.40   4 1.41 135 1.42
  68  0.623  0.262  0.232-   5 1.40   8 1.40 136 1.42
  69  0.352  0.790  0.213-   6 1.40  10 1.41 137 1.42
  70  0.376  0.484  0.145-   9 1.40  16 1.40 138 1.42
  71  0.122  0.984  0.668-  11 1.40  14 1.40 139 1.42
  72  0.154  0.291  0.690-  12 1.40  15 1.41 140 1.42
  73  0.588  0.085  0.235-  33 1.41  34 1.41  76 1.42
  74  0.901  0.630  0.735-  45 1.41  35 1.41  75 1.42
  75  0.911  0.586  0.729-  39 1.41  36 1.41  74 1.42
  76  0.597  0.130  0.234-  40 1.41  37 1.41  73 1.42
  77  0.411  0.661  0.170-  38 1.41  42 1.41  78 1.42
  78  0.401  0.616  0.164-  41 1.41  48 1.41  77 1.42
  79  0.097  0.117  0.666-  46 1.41  43 1.41  80 1.42
  80  0.089  0.161  0.666-  47 1.41  44 1.41  79 1.42
  81  0.014  0.874  0.967- 119 1.95 117 1.95 127 1.97 122 1.98
  82  0.993  0.871  0.463- 130 1.94 126 1.95 129 1.97 118 1.98
  83  0.493  0.375  0.437- 124 1.94 120 1.95 125 1.97 128 1.98
  84  0.515  0.372  0.933- 132 1.95 131 1.95 121 1.97 123 1.98
  85  0.209  0.189  0.215-  60 1.09
  86  0.078  0.583  0.289-  55 1.08
  87  0.729  0.136  0.683-  56 1.08
  88  0.418  0.079  0.799-  49 1.08
  89  0.768  0.632  0.186-  61 1.08
  90  0.793  0.554  0.177-  52 1.09
  91  0.293  0.692  0.722-  58 1.09
  92  0.931  0.088  0.103-  59 1.09
  93  0.059  0.662  0.298-  51 1.09
  94  0.919  0.167  0.102-  63 1.08
  95  0.268  0.614  0.713-  57 1.08
  96  0.578  0.663  0.610-  54 1.08
  97  0.560  0.585  0.601-  64 1.09
  98  0.431  0.158  0.797-  53 1.09
  99  0.708  0.057  0.685-  50 1.09
 100  0.229  0.111  0.217-  62 1.08
 101  0.885  0.419  0.967-   7 1.08
 102  0.126  0.326  0.405-  12 1.08
 103  0.460  0.472  0.853-  16 1.08
 104  0.242  0.787  0.509-  10 1.08
 105  0.185  0.960  0.967-  11 1.08
 106  0.263  0.289  0.985-  15 1.08
 107  0.762  0.957  0.915-   1 1.08
 108  0.800  0.788  0.462-  13 1.08
 109  0.051  0.969  0.376-  14 1.08
 110  0.743  0.459  0.390-   4 1.08
 111  0.686  0.286  0.934-   5 1.08
 112  0.626  0.920  0.496-   2 1.08
 113  0.552  0.277  0.524-   8 1.08
 114  0.301  0.459  0.438-   9 1.08
 115  0.383  0.827  0.932-   6 1.08
 116  0.959  0.775  0.047-   3 1.08
 117  0.830  0.904  0.107-   1 1.34 118 1.38  81 1.95
 118  0.786  0.892  0.291-   2 1.35 117 1.38  82 1.98
 119  0.931  0.826  0.839-   3 1.35 129 1.38  81 1.95
 120  0.676  0.406  0.577-   4 1.34 123 1.38  83 1.95
 121  0.618  0.330  0.123-   5 1.34 124 1.38  84 1.97
 122  0.222  0.854  0.140-   6 1.35 126 1.38  81 1.98
 123  0.723  0.393  0.759-   7 1.35 120 1.38  84 1.98
 124  0.575  0.327  0.310-   8 1.35 121 1.38  83 1.94
 125  0.382  0.416  0.246-   9 1.34 132 1.38  83 1.97
 126  0.175  0.841  0.323-  10 1.34 122 1.38  82 1.95
 127  0.117  0.916  0.777-  11 1.34 130 1.38  81 1.97
 128  0.287  0.354  0.610-  12 1.35 131 1.38  83 1.98
 129  0.880  0.830  0.654-  13 1.34 119 1.38  82 1.97
 130  0.075  0.919  0.590-  14 1.35 127 1.38  82 1.94
 131  0.332  0.342  0.794-  15 1.34 128 1.38  84 1.95
 132  0.432  0.420  0.061-  16 1.35 125 1.38  84 1.95
 133  0.594  0.997  0.228-  17 1.41  65 1.42  18 1.42
 134  0.879  0.718  0.748-  29 1.41  66 1.42  19 1.42
 135  0.910  0.498  0.709-  23 1.41  67 1.42  20 1.42
 136  0.618  0.218  0.233-  24 1.41  68 1.42  21 1.42
 137  0.409  0.749  0.190-  22 1.41  69 1.42  26 1.42
 138  0.379  0.528  0.151-  25 1.41  70 1.42  32 1.42
 139  0.117  0.028  0.668-  30 1.41  71 1.42  27 1.42
 140  0.095  0.249  0.672-  31 1.41  72 1.42  28 1.42
 141  0.482  0.005  0.927-  17 1.23
 142  0.665  0.990  0.543-  18 1.23
 143  0.002  0.727  0.447-  19 1.23
 144  0.843  0.489  0.025-  20 1.23
 145  0.488  0.224  0.935-  21 1.23
 146  0.518  0.738  0.492-  22 1.23
 147  0.019  0.509  0.407-  23 1.23
 148  0.706  0.210  0.542-  24 1.23
 149  0.298  0.539  0.841-  25 1.23
 150  0.342  0.758  0.874-  26 1.23
 151  0.987  0.022  0.965-  27 1.23
 152  0.167  0.256  0.357-  28 1.23
 153  0.798  0.707  0.058-  29 1.23
 154  0.204  0.037  0.358-  30 1.23
 155  0.983  0.241  0.974-  31 1.23
 156  0.503  0.520  0.452-  32 1.23
 

IMPORTANT INFORMATION: All symmetrisations will be switched off!
NOSYMM: (Re-)initialisation of all symmetry stuff for point group C_1.

 
 
 KPOINTS: MANUAL                                  

Automatic generation of k-mesh.
Space group operators:
 irot       det(A)        alpha          n_x          n_y          n_z        tau_x        tau_y        tau_z
    1     1.000000     0.000000     1.000000     0.000000     0.000000     0.000000     0.000000     0.000000
 
 Subroutine IBZKPT returns following result:
 ===========================================
 
 Found     10 irreducible k-points:
 
 Following reciprocal coordinates:
            Coordinates               Weight
  0.000000  0.000000  0.000000      1.000000
  0.250000 -0.000000 -0.000000      2.000000
  0.500000 -0.000000 -0.000000      1.000000
  0.000000 -0.000000  0.250000      2.000000
  0.250000  0.000000  0.250000      2.000000
  0.500000 -0.000000  0.250000      2.000000
 -0.250000 -0.000000  0.250000      2.000000
  0.000000 -0.000000  0.500000      1.000000
  0.250000 -0.000000  0.500000      2.000000
  0.500000  0.000000  0.500000      1.000000
 
 Following cartesian coordinates:
            Coordinates               Weight
  0.000000  0.000000  0.000000      1.000000
  0.035786  0.000011 -0.000007      2.000000
  0.071572  0.000021 -0.000015      1.000000
 -0.000015 -0.001746  0.034832      2.000000
  0.035771 -0.001736  0.034824      2.000000
  0.071557 -0.001725  0.034817      2.000000
 -0.035801 -0.001757  0.034839      2.000000
 -0.000030 -0.003493  0.069663      1.000000
  0.035756 -0.003482  0.069656      2.000000
  0.071542 -0.003471  0.069649      1.000000
 


--------------------------------------------------------------------------------------------------------




 Dimension of arrays:
   k-points           NKPTS =     10   k-points in BZ     NKDIM =     10   number of bands    NBANDS=    384
   number of dos      NEDOS =    301   number of ions     NIONS =    156
   non local maximal  LDIM  =      6   non local SUM 2l+1 LMDIM =     18
   total plane-waves  NPLWV = 387072
   max r-space proj   IRMAX =   2304   max aug-charges    IRDMAX=   9712
   dimension x,y,z NGX =    42 NGY =  192 NGZ =   48
   dimension x,y,z NGXF=    84 NGYF=  384 NGZF=   96
   support grid    NGXF=    84 NGYF=  384 NGZF=   96
   ions per type =              80   4  32  24  16
   NGX,Y,Z   is equivalent  to a cutoff of   9.99,  9.96, 11.08 a.u.
   NGXF,Y,Z  is equivalent  to a cutoff of  19.99, 19.92, 22.15 a.u.

 SYSTEM =  flex_MOF                                
 POSCAR =   Co_F                                   

 Startparameter for this run:
   NWRITE =      2    write-flag & timer
   PREC   = normal    normal or accurate (medium, high low for compatibility)
   ISTART =      0    job   : 0-new  1-cont  2-samecut
   ICHARG =      2    charge: 1-file 2-atom 10-const
   ISPIN  =      2    spin polarized calculation?
   LNONCOLLINEAR =      F non collinear calculations
   LSORBIT =      F    spin-orbit coupling
   INIWAV =      1    electr: 0-lowe 1-rand  2-diag
   LASPH  =      F    aspherical Exc in radial PAW
   METAGGA=      F    non-selfconsistent MetaGGA calc.

 Electronic Relaxation 1
   ENCUT  =  600.0 eV  44.10 Ry    6.64 a.u.  13.95 64.00 14.39*2*pi/ulx,y,z
   ENINI  =  600.0     initial cutoff
   ENAUG  =  644.9 eV  augmentation charge cutoff
   NELM   =     80;   NELMIN=  8; NELMDL= -5     # of ELM steps 
   EDIFF  = 0.1E-05   stopping-criterion for ELM
   LREAL  =      T    real-space projection
   NLSPLINE    = F    spline interpolate recip. space projectors
   LCOMPAT=      F    compatible to vasp.4.4
   GGA_COMPAT  = T    GGA compatible to vasp.4.4-vasp.4.6
   LMAXPAW     = -100 max onsite density
   LMAXMIX     =    2 max onsite mixed and CHGCAR
   VOSKOWN=      0    Vosko Wilk Nusair interpolation
   ROPT   =   -0.00050  -0.00050  -0.00050  -0.00050
   ROPT   =   -0.00050
 Ionic relaxation
   EDIFFG = -.1E-01   stopping-criterion for IOM
   NSW    =    500    number of steps for IOM
   NBLOCK =      1;   KBLOCK =    500    inner block; outer block 
   IBRION =      2    ionic relax: 0-MD 1-quasi-New 2-CG
   NFREE  =      1    steps in history (QN), initial steepest desc. (CG)
   ISIF   =      4    stress and relaxation
   IWAVPR =     11    prediction:  0-non 1-charg 2-wave 3-comb
   ISYM   =      0    0-nonsym 1-usesym 2-fastsym
   LCORR  =      T    Harris-Foulkes like correction to forces

   POTIM  = 0.5000    time-step for ionic-motion
   TEIN   =    0.0    initial temperature
   TEBEG  =    0.0;   TEEND  =   0.0 temperature during run
   SMASS  =  -3.00    Nose mass-parameter (am)
   estimated Nose-frequenzy (Omega)   =  0.10E-29 period in steps =****** mass=  -0.112E-26a.u.
   SCALEE = 1.0000    scale energy and forces
   NPACO  =    256;   APACO  = 16.0  distance and # of slots for P.C.
   PSTRESS=    0.0 pullay stress

  Mass of Ions in am
   POMASS =  12.01 58.93  1.00 14.00 16.00
  Ionic Valenz
   ZVAL   =   4.00  9.00  1.00  5.00  6.00
  Atomic Wigner-Seitz radii
   RWIGS  =  -1.00 -1.00 -1.00 -1.00 -1.00
  virtual crystal weights 
   VCA    =   1.00  1.00  1.00  1.00  1.00
   NELECT =     604.0000    total number of electrons
   NUPDOWN=      -1.0000    fix difference up-down

 DOS related values:
   EMIN   =  10.00;   EMAX   =-10.00  energy-range for DOS
   EFERMI =   0.00
   ISMEAR =     0;   SIGMA  =   0.05  broadening in eV -4-tet -1-fermi 0-gaus

 Electronic relaxation 2 (details)
   IALGO  =     38    algorithm
   LDIAG  =      T    sub-space diagonalisation (order eigenvalues)
   LSUBROT=      F    optimize rotation matrix (better conditioning)
   TURBO    =      0    0=normal 1=particle mesh
   IRESTART =      0    0=no restart 2=restart with 2 vectors
   NREBOOT  =      0    no. of reboots
   NMIN     =      0    reboot dimension
   EREF     =   0.00    reference energy to select bands
   IMIX   =      4    mixing-type and parameters
     AMIX     =   0.40;   BMIX     =  1.00
     AMIX_MAG =   1.60;   BMIX_MAG =  1.00
     AMIN     =   0.10
     WC   =   100.;   INIMIX=   1;  MIXPRE=   1;  MAXMIX= -45

 Intra band minimization:
   WEIMIN = 0.0010     energy-eigenvalue tresh-hold
   EBREAK =  0.65E-09  absolut break condition
   DEPER  =   0.30     relativ break condition  

   TIME   =   0.40     timestep for ELM

  volume/ion in A,a.u.               =      10.29        69.42
  Fermi-wavevector in a.u.,A,eV,Ry     =   1.182023  2.233699 19.009756  1.397178
  Thomas-Fermi vector in A             =   2.318285
 
 Write flags
   LWAVE        =      T    write WAVECAR
   LDOWNSAMPLE  =      F    k-point downsampling of WAVECAR
   LCHARG       =      T    write CHGCAR
   LVTOT        =      F    write LOCPOT, total local potential
   LVHAR        =      F    write LOCPOT, Hartree potential only
   LELF         =      F    write electronic localiz. function (ELF)
   LORBIT       =     11    0 simple, 1 ext, 2 COOP (PROOUT), +10 PAW based schemes


 Dipole corrections
   LMONO  =      F    monopole corrections only (constant potential shift)
   LDIPOL =      F    correct potential (dipole corrections)
   IDIPOL =      0    1-x, 2-y, 3-z, 4-all directions 
   EPSILON=  1.0000000 bulk dielectric constant

 Exchange correlation treatment:
   GGA     =    PE    GGA type
   LEXCH   =     8    internal setting for exchange type
   VOSKOWN=      0    Vosko Wilk Nusair interpolation
   LHFCALC =     F    Hartree Fock is set to
   LHFONE  =     F    Hartree Fock one center treatment
   AEXX    =    0.0000 exact exchange contribution

 Linear response parameters
   LEPSILON=     F    determine dielectric tensor
   LRPA    =     F    only Hartree local field effects (RPA)
   LNABLA  =     F    use nabla operator in PAW spheres
   LVEL    =     F    velocity operator in full k-point grid
   LINTERFAST=   F  fast interpolation
   KINTER  =     0    interpolate to denser k-point grid
   CSHIFT  =0.1000    complex shift for real part using Kramers Kronig
   OMEGAMAX=  -1.0    maximum frequency
   DEG_THRESHOLD= 0.2000000E-02 threshold for treating states as degnerate
   RTIME   =   -0.100 relaxation time in fs
  (WPLASMAI=    0.000 imaginary part of plasma frequency in eV, 0.658/RTIME)
   DFIELD  = 0.0000000 0.0000000 0.0000000 field for delta impulse in time
 
 Orbital magnetization related:
   ORBITALMAG=     F  switch on orbital magnetization
   LCHIMAG   =     F  perturbation theory with respect to B field
   DQ        =  0.001000  dq finite difference perturbation B field
   LLRAUG    =     F  two centre corrections for induced B field



--------------------------------------------------------------------------------------------------------


 conjugate gradient relaxation of ions
 charge density and potential will be updated during run
 spin polarized calculation
 Variant of blocked Davidson
 Davidson routine will perform the subspace rotation
 perform sub-space diagonalisation
    after iterative eigenvector-optimisation
 modified Broyden-mixing scheme, WC =      100.0
 initial mixing is a Kerker type mixing with AMIX =  0.4000 and BMIX =      1.0000
 Hartree-type preconditioning will be used
 using additional bands           82
 real space projection scheme for non local part
 use partial core corrections
 calculate Harris-corrections to forces 
   (improved forces if not selfconsistent)
 use gradient corrections 
 use of overlap-Matrix (Vanderbilt PP)
 Gauss-broadening in eV      SIGMA  =   0.05


--------------------------------------------------------------------------------------------------------


  energy-cutoff  :      600.00
  volume of cell :     1604.66
      direct lattice vectors                 reciprocal lattice vectors
     6.985982143 -0.000172692  0.002986707     0.143143809  0.000042479 -0.000029176
    -0.009170185 32.003050207  1.604438315     0.000001430  0.031323854 -0.001532533
     0.001362028  0.352019155  7.195015488    -0.000059739 -0.006985019  0.139326864

  length of vectors
     6.985982784 32.043244669  7.203621812     0.143143818  0.031361321  0.139501860


 
 k-points in units of 2pi/SCALE and weight: MANUAL                                  
   0.00000000  0.00000000  0.00000000       0.062
   0.03578595  0.00001062 -0.00000729       0.125
   0.07157190  0.00002124 -0.00001459       0.062
  -0.00001493 -0.00174625  0.03483172       0.125
   0.03577102 -0.00173563  0.03482442       0.125
   0.07155697 -0.00172502  0.03481713       0.125
  -0.03580089 -0.00175687  0.03483901       0.125
  -0.00002987 -0.00349251  0.06966343       0.062
   0.03575608 -0.00348189  0.06965614       0.125
   0.07154204 -0.00347127  0.06964884       0.062
 
 k-points in reciprocal lattice and weights: MANUAL                                  
   0.00000000  0.00000000  0.00000000       0.062
   0.25000000 -0.00000000 -0.00000000       0.125
   0.50000000 -0.00000000 -0.00000000       0.062
   0.00000000 -0.00000000  0.25000000       0.125
   0.25000000  0.00000000  0.25000000       0.125
   0.50000000 -0.00000000  0.25000000       0.125
  -0.25000000 -0.00000000  0.25000000       0.125
   0.00000000 -0.00000000  0.50000000       0.062
   0.25000000 -0.00000000  0.50000000       0.125
   0.50000000  0.00000000  0.50000000       0.062
 
 position of ions in fractional coordinates (direct lattice) 
   0.74782330  0.94146456  0.05530505
   0.67493904  0.92249898  0.35335019
   0.92624156  0.78508136  0.90272230
   0.75733655  0.44315177  0.52898074
   0.64949590  0.29115656  0.07516509
   0.33250063  0.82367883  0.07451591
   0.83364091  0.42252783  0.82462647
   0.57973788  0.28660342  0.37821501
   0.34454796  0.45445647  0.29734461
   0.25665800  0.80298711  0.37032432
   0.14847977  0.95495419  0.82488793
   0.17563682  0.32356891  0.54739538
   0.84339252  0.79174710  0.60260422
   0.07925904  0.95950093  0.52178572
   0.24918097  0.30458942  0.84515590
   0.42738942  0.46104608  0.99715050
   0.52833052  0.02154200  0.06802770
   0.62974092  0.01328746  0.40097312
   0.94654582  0.70264192  0.58090684
   0.87495269  0.51261947  0.88527003
   0.54673324  0.20136292  0.07027848
   0.47274568  0.72261594  0.34697172
   0.97321723  0.52365549  0.55174275
   0.66212107  0.19322096  0.39995520
   0.33772586  0.55435428  0.98712960
   0.37436000  0.73356926  0.01357832
   0.04599271  0.04470374  0.82993948
   0.13077228  0.23277260  0.49977803
   0.83733311  0.69178694  0.91229402
   0.16124402  0.05286961  0.50002799
   0.02918900  0.22449043  0.83281848
   0.44732353  0.54361438  0.31831810
   0.52619460  0.06742619  0.07454116
   0.63327365  0.05936624  0.39858514
   0.95334858  0.65682330  0.57696169
   0.86749691  0.55852408  0.88960086
   0.54208526  0.15535352  0.07324194
   0.47282592  0.67697195  0.33364232
   0.97302017  0.56929661  0.56520662
   0.65274791  0.14737949  0.39703931
   0.34534344  0.59997413  0.99789235
   0.36716483  0.68765494  0.00939676
   0.04182878  0.09070231  0.82712038
   0.13397791  0.18669818  0.50200343
   0.84516758  0.64617838  0.90141731
   0.15253266  0.09870501  0.50317858
   0.02670041  0.17861376  0.82613228
   0.45367156  0.58943709  0.32221196
   0.46661281  0.09345435  0.92016145
   0.68121590  0.07749434  0.55914239
   0.02001327  0.64009457  0.41864457
   0.81821777  0.57523554  0.05339263
   0.47442656  0.13719240  0.91899023
   0.53019432  0.64979340  0.48511631
   0.03016750  0.59652674  0.41373429
   0.69185755  0.12124708  0.55773440
   0.30574915  0.62729620  0.84108276
   0.31786969  0.67088746  0.84578701
   0.97435712  0.10884652  0.98153068
   0.18179801  0.16859907  0.34131502
   0.80580065  0.61882001  0.05823188
   0.19190550  0.12484967  0.34252926
   0.96693061  0.15258346  0.98052478
   0.52030621  0.60621962  0.48035668
   0.65269545  0.95512125  0.21061687
   0.87531500  0.76189453  0.75468900
   0.85338647  0.45601725  0.68558647
   0.62260505  0.26226713  0.23197374
   0.35242892  0.79017041  0.21338396
   0.37635090  0.48427812  0.14503539
   0.12180316  0.98383375  0.66807124
   0.15375251  0.29092082  0.69011663
   0.58835737  0.08527827  0.23492855
   0.90066751  0.62976450  0.73509957
   0.91071570  0.58569485  0.72912122
   0.59707108  0.12953614  0.23423635
   0.41061896  0.66052438  0.16987081
   0.40081007  0.61644517  0.16406245
   0.09709476  0.11652878  0.66614667
   0.08877130  0.16077995  0.66561833
   0.01368945  0.87367972  0.96726658
   0.99264449  0.87116469  0.46320338
   0.49308342  0.37496344  0.43692259
   0.51486490  0.37244732  0.93281064
   0.20897928  0.18933233  0.21511774
   0.07789206  0.58319246  0.28914169
   0.72868807  0.13555669  0.68328366
   0.41822063  0.07902207  0.79853462
   0.76830445  0.63205460  0.18621929
   0.79309858  0.55363348  0.17735629
   0.29250767  0.69245213  0.72181317
   0.93117522  0.08827552  0.10339594
   0.05919458  0.66159530  0.29835596
   0.91877558  0.16700635  0.10229901
   0.26824227  0.61402549  0.71321321
   0.57790418  0.66317798  0.60955090
   0.55974629  0.58475403  0.60060354
   0.43134214  0.15775273  0.79713614
   0.70821089  0.05678408  0.68540156
   0.22851015  0.11055093  0.21685896
   0.88476882  0.41915182  0.96696810
   0.12608913  0.32607978  0.40456158
   0.45976638  0.47151999  0.85303956
   0.24197073  0.78703589  0.50928672
   0.18473414  0.96015267  0.96650209
   0.26309388  0.28933549  0.98544856
   0.76151452  0.95672589  0.91497770
   0.79963454  0.78758790  0.46178769
   0.05124794  0.96903013  0.37602586
   0.74256097  0.45905889  0.38995811
   0.68606190  0.28598223  0.93356654
   0.62561668  0.91999850  0.49632598
   0.55158055  0.27707912  0.52400011
   0.30082398  0.45864030  0.43819222
   0.38340194  0.82707659  0.93202756
   0.95870007  0.77454523  0.04670979
   0.83042923  0.90420768  0.10669465
   0.78606858  0.89223450  0.29078557
   0.93102397  0.82608723  0.83942386
   0.67617898  0.40556983  0.57677566
   0.61801980  0.33007561  0.12280560
   0.22160978  0.85362276  0.14012507
   0.72256781  0.39255995  0.75946266
   0.57545097  0.32731105  0.31014031
   0.38160739  0.41603626  0.24629445
   0.17546139  0.84056294  0.32290531
   0.11723046  0.91602973  0.77721355
   0.28680513  0.35385703  0.60970863
   0.88035923  0.83015502  0.65386733
   0.07496982  0.91879411  0.58985902
   0.33158904  0.34187633  0.79360540
   0.43226526  0.42005409  0.06069026
   0.59402983  0.99691283  0.22841594
   0.87853691  0.71788073  0.74794643
   0.90994199  0.49770595  0.70915968
   0.61811299  0.21807166  0.23256481
   0.40916214  0.74850978  0.18962742
   0.37932932  0.52830412  0.15147313
   0.11741353  0.02801779  0.66754385
   0.09500021  0.24912911  0.67239852
   0.48241054  0.00542785  0.92651766
   0.66535990  0.99032136  0.54346443
   0.00157580  0.72653122  0.44747202
   0.84308016  0.48851413  0.02515109
   0.48818771  0.22417681  0.93491245
   0.51839868  0.73754044  0.49163266
   0.01892112  0.50878780  0.40691417
   0.70584751  0.20959368  0.54198181
   0.29815822  0.53913684  0.84106162
   0.34247638  0.75765427  0.87366901
   0.98700597  0.02188625  0.96521457
   0.16670339  0.25574968  0.35734726
   0.79784221  0.70697104  0.05849866
   0.20421702  0.03650243  0.35773855
   0.98344544  0.24058796  0.97446691
   0.50273832  0.51977373  0.45165397
 
 position of ions in cartesian coordinates  (Angst):
   5.21572211 30.14907681  1.91067605
   4.70713384 29.64705050  4.02446863
   6.46473719 25.44261369  7.75748197
   5.28739633 14.36828904  4.51929622
   4.53479915  9.34424528  1.00989658
   2.31539169 26.38640849  1.85867811
   5.82104903 13.81231972  6.61360992
   4.04792540  9.30522237  3.18283183
   2.40324347 14.64860465  2.86957549
   1.78614908 25.82835385  3.95359904
   1.02964345 30.85179766  7.46768997
   1.22477407 10.54785552  4.45818920
   5.88548537 25.55030482  5.60857504
   0.54561411 30.89062132  5.29395314
   1.73913176 10.04525853  6.57034898
   2.98286510 15.10582320  7.91550978
   3.69080266  0.71326564  0.52560115
   4.39978308  0.56628073  2.90820754
   6.60690003 22.69101155  5.30980640
   6.10890884 16.71686765  7.19461113
   3.81771783  6.46887257  0.83036204
   3.29643895 23.24797312  3.65727155
   6.79482763 16.95262904  4.81287727
   4.62433882  6.32433748  3.18967250
   2.35560778 18.08845815  7.99284869
   2.60856384 23.48116915  1.27578097
   0.32202471  1.72280279  6.04328914
   0.91211893  7.62534191  3.96977053
   5.84449294 22.46029259  7.67639996
   1.12664409  1.86798043  3.68301676
   0.20298956  7.47754136  6.35241009
   3.12044273 17.50929518  3.16383543
   3.67546928  2.18399281  0.64607756
   4.42403688  2.04010103  2.96496713
   6.65483884 21.22328586  5.20792813
   6.05640780 18.18748105  7.29940040
   3.78567308  4.99747538  0.77785110
   3.29739992 21.78253399  3.48813356
   6.79305077 18.41802362  4.98297782
   4.55927449  4.85624599  3.09511486
   2.40842041 19.55221980  8.14350385
   2.55871385 22.01029985  1.17200639
   0.29250990  3.19390571  6.09679512
   0.93493899  6.15160276  3.91186834
   5.89962777 20.99684929  7.52498912
   1.06537066  3.33596362  3.77919934
   0.18601586  6.00699482  6.23068906
   3.16437504 18.97713137  3.26539047
   3.26014504  3.31465806  6.77191129
   4.75901305  2.67676648  4.14940762
   0.13451274 20.63234618  4.03920622
   5.71085240 18.42794586  1.30953451
   3.31432911  4.71399560  6.83368268
   3.69863004 20.96604938  4.53455632
   0.20584286 19.23631230  3.93400511
   4.83295227  4.07649010  4.20950751
   2.13135123 20.37141621  7.05897472
   2.21563179 21.76812339  7.16279757
   6.80718014  3.82877006  7.23967610
   1.26895641  5.51580252  2.72681665
   5.62371360 19.82448743  1.41424452
   1.33997007  4.11611389  2.66539007
   6.75489628  5.22813278  7.30258966
   3.62994498 19.56988191  4.43036975
   4.55124701 30.64082192  3.04977420
   6.10897616 24.64846271  6.65502610
   5.95849470 14.83513510  5.66700563
   4.34741865  8.47489996  2.09170565
   2.45510678 25.36291767  2.80413319
   2.62493727 15.54936718  1.82165032
   0.84280272 31.72083379  6.38564724
   1.07238445  9.55326142  5.43262354
   4.10979201  2.81176239  1.82889555
   6.28727329 20.41299837  6.30216111
   6.35786579 19.00052902  6.18846976
   4.17025909  4.22790422  1.89495018
   2.86275097 21.19852190  2.28322012
   2.79462256 19.78580970  2.17067720
   0.67814096  3.96375606  4.98018886
   0.61958695  5.37974389  5.04736084
   0.08893993 28.30090997  8.36130413
   6.92723882 28.04281224  4.73345025
   3.44182855 12.15369373  3.74674318
   3.59469213 12.24772863  7.31069354
   1.45848227  6.13490161  1.85217165
   0.53919839 18.76570745  3.01630789
   5.09028941  4.57863077  5.13590527
   2.92204485  2.80997457  5.87350413
   5.36181871 20.29309512  2.35623797
   5.53573714 17.78025578  2.16672075
   2.03808656 22.41462190  6.30532730
   6.50450480  2.86132249  0.88834916
   0.40787171 21.27808427  3.20834137
   6.41715764  5.38056530  1.00673844
   1.86927636 19.90170703  6.11754728
   4.03197701 21.43819207  5.45148239
   3.90583330 18.92523971  5.26122537
   3.01298760  5.32910134  5.98979969
   4.94796144  2.05841592  5.02469661
   1.59564939  3.61426617  1.73835823
   6.17845253 13.75437518  7.63249626
   0.87841725 10.57793917  3.43437829
   3.20875765 15.39028480  6.89553080
   1.68387958 25.36678607  4.92779910
   1.28306105 31.06800935  8.49505500
   1.83665813  9.60646963  7.55532442
   5.31239972 30.94010498  8.12056083
   5.57963925 25.36763509  4.58859404
   0.34964315 31.14427928  4.26041405
   5.18383912 14.82842925  3.54450416
   4.79146519  9.48081838  7.17791564
   4.36278640 29.61736637  5.04902247
   3.85150470  9.05173976  4.21639265
   2.09794200 14.83208864  3.88955834
   2.67212413 26.79699895  8.03409122
   6.69042243 24.80408704  1.58165104
   5.79321735 28.97481878  2.22089537
   5.48367513 28.65645192  3.52608966
   6.49768479 26.73264367  7.36785439
   4.72084073 13.18239101  4.80264114
   4.31461572 10.60654940  1.41501996
   1.54052492 27.36782040  2.37844899
   5.04528041 12.83033647  6.09634189
   4.01751115 10.58402802  2.75833342
   2.66242271 13.40106380  2.44073663
   1.21850183 27.01421647  3.67246417
   0.81162833 29.58931919  7.06212687
   2.00120104 11.53908393  4.95546141
   6.14345176 26.79751457  6.03914749
   0.51611571 29.61184271  5.71841715
   2.31442094 11.22039244  6.25951301
   3.01602810 13.46430170  1.11190926
   4.14105100 31.98455552  3.24471556
   6.13187876 23.23751290  6.53590541
   6.35324034 16.17758913  5.90367113
   4.31644332  7.06071880  2.02503604
   2.85179370 24.02127786  2.56653206
   2.64534952 16.96059916  1.93861580
   0.82090113  1.13162266  4.84829184
   0.66230100  8.20957219  5.23791377
   3.37132357  0.49977628  6.67645839
   4.63985120 31.88449935  5.50113177
   0.00495556 23.40873350  4.38524737
   5.88529745 15.64265022  0.96727128
   3.40968826  7.50336452  7.08784551
   3.61543016 23.77651848  4.72219102
   0.12807118 16.42599993  3.74412890
   4.92985425  6.89830326  4.23795585
   2.07912954 17.55004171  6.91735369
   2.38677598 24.55473667  7.50269449
   6.89632004  1.04003044  6.98279682
   1.16272836  8.31053408  2.98195153
   5.56730805 22.64568461  1.55757308
   1.42680895  1.29408479  2.63311025
   6.86945328  8.04240980  7.40025032
   3.50796969 16.79324866  4.08510372
 


--------------------------------------------------------------------------------------------------------


 k-point  1 :   0.0000 0.0000 0.0000  plane waves:   53471
 k-point  2 :   0.2500-0.0000-0.0000  plane waves:   53586
 k-point  3 :   0.5000-0.0000-0.0000  plane waves:   53668
 k-point  4 :   0.0000-0.0000 0.2500  plane waves:   53506
 k-point  5 :   0.2500 0.0000 0.2500  plane waves:   53534
 k-point  6 :   0.5000-0.0000 0.2500  plane waves:   53553
 k-point  7 :  -0.2500-0.0000 0.2500  plane waves:   53538
 k-point  8 :   0.0000-0.0000 0.5000  plane waves:   53450
 k-point  9 :   0.2500-0.0000 0.5000  plane waves:   53564
 k-point 10 :   0.5000 0.0000 0.5000  plane waves:   53506

 maximum and minimum number of plane-waves per node :     13462    13337

 maximum number of plane-waves:     53668
 maximum index in each direction: 
   IXMAX=   14   IYMAX=   63   IZMAX=   14
   IXMIN=  -14   IYMIN=  -63   IZMIN=  -14


 real space projection operators:
  total allocation   :      12259.61 KBytes
  max/ min on nodes  :       3229.30       2895.23


 parallel 3D FFT for wavefunctions:
    minimum data exchange during FFTs selected (reduces bandwidth)
 parallel 3D FFT for charge:
    minimum data exchange during FFTs selected (reduces bandwidth)


 total amount of memory used by VASP MPI-rank0   110574. kBytes
=======================================================================

   base      :      30000. kBytes
   nonlr-proj:      10003. kBytes
   fftplans  :       4318. kBytes
   grid      :      12079. kBytes
   one-center:       1213. kBytes
   wavefun   :      52961. kBytes
 
     INWAV:  cpu time    0.0001: real time    0.0001
 Broyden mixing: mesh for mixing (old mesh)
   NGX = 27   NGY =127   NGZ = 29
  (NGX  = 84   NGY  =384   NGZ  = 96)
  gives a total of  99441 points

 initial charge density was supplied:
 charge density of overlapping atoms calculated
 number of electron     604.0000000 magnetization      -0.0000000
 keeping initial charge density in first step


--------------------------------------------------------------------------------------------------------


 Maximum index for non-local projection operator          654
 Maximum index for augmentation-charges          549 (set IRDMAX)


--------------------------------------------------------------------------------------------------------


 First call to EWALD:  gamma=   0.151
 Maximum number of real-space cells 4x 1x 4
 Maximum number of reciprocal cells 2x 7x 2

    FEWALD:  cpu time    0.0149: real time    0.0153


--------------------------------------- Iteration      1(   1)  ---------------------------------------


    POTLOK:  cpu time    0.2162: real time    0.2517
    SETDIJ:  cpu time    0.0665: real time    0.0669
     EDDAV:  cpu time   38.2300: real time   38.3712
       DOS:  cpu time    0.0075: real time    0.0091
    --------------------------------------------
      LOOP:  cpu time   38.5203: real time   38.6990

 eigenvalue-minimisations  : 15360
 total energy-change (2. order) : 0.4518861E+04  (-0.3201098E+05)
 number of electron     604.0000000 magnetization      -0.0000000
 augmentation part      604.0000000 magnetization      -0.0000000

 Free energy of the ion-electron system (eV)
  ---------------------------------------------------
  alpha Z        PSCENC =      1052.75148057
  Ewald energy   TEWEN  =    -13213.16288182
  -Hartree energ DENC   =    -14086.89736337
  -exchange      EXHF   =         0.00000000
  -V(xc)+E(xc)   XCENC  =      2126.94185026
  PAW double counting   =     22087.95224925   -22402.63741193
  entropy T*S    EENTRO =        -0.02739890
  eigenvalues    EBANDS =       262.12931855
  atomic energy  EATOM  =     28691.81066055
  Solvation  Ediel_sol  =         0.00000000
  ---------------------------------------------------
  free energy    TOTEN  =      4518.86050315 eV

  energy without entropy =     4518.88790205  energy(sigma->0) =     4518.87420260


--------------------------------------------------------------------------------------------------------




--------------------------------------- Iteration      1(   2)  ---------------------------------------


     EDDAV:  cpu time   43.5646: real time   43.6182
       DOS:  cpu time    0.0060: real time    0.0060
    --------------------------------------------
      LOOP:  cpu time   43.5706: real time   43.6242

 eigenvalue-minimisations  : 18720
 total energy-change (2. order) :-0.5261441E+04  (-0.5043339E+04)
 number of electron     604.0000000 magnetization      -0.0000000
 augmentation part      604.0000000 magnetization      -0.0000000

 Free energy of the ion-electron system (eV)
  ---------------------------------------------------
  alpha Z        PSCENC =      1052.75148057
  Ewald energy   TEWEN  =    -13213.16288182
  -Hartree energ DENC   =    -14086.89736337
  -exchange      EXHF   =         0.00000000
  -V(xc)+E(xc)   XCENC  =      2126.94185026
  PAW double counting   =     22087.95224925   -22402.63741193
  entropy T*S    EENTRO =        -0.03270345
  eigenvalues    EBANDS =     -4999.30661192
  atomic energy  EATOM  =     28691.81066055
  Solvation  Ediel_sol  =         0.00000000
  ---------------------------------------------------
  free energy    TOTEN  =      -742.58073186 eV

  energy without entropy =     -742.54802841  energy(sigma->0) =     -742.56438014


--------------------------------------------------------------------------------------------------------




--------------------------------------- Iteration      1(   3)  ---------------------------------------


     EDDAV:  cpu time   43.1058: real time   43.1575
       DOS:  cpu time    0.0062: real time    0.0062
    --------------------------------------------
      LOOP:  cpu time   43.1120: real time   43.1637

 eigenvalue-minimisations  : 18272
 total energy-change (2. order) :-0.5284664E+03  (-0.5190033E+03)
 number of electron     604.0000000 magnetization      -0.0000000
 augmentation part      604.0000000 magnetization      -0.0000000

 Free energy of the ion-electron system (eV)
  ---------------------------------------------------
  alpha Z        PSCENC =      1052.75148057
  Ewald energy   TEWEN  =    -13213.16288182
  -Hartree energ DENC   =    -14086.89736337
  -exchange      EXHF   =         0.00000000
  -V(xc)+E(xc)   XCENC  =      2126.94185026
  PAW double counting   =     22087.95224925   -22402.63741193
  entropy T*S    EENTRO =        -0.02316634
  eigenvalues    EBANDS =     -5527.78251941
  atomic energy  EATOM  =     28691.81066055
  Solvation  Ediel_sol  =         0.00000000
  ---------------------------------------------------
  free energy    TOTEN  =     -1271.04710225 eV

  energy without entropy =    -1271.02393591  energy(sigma->0) =    -1271.03551908


--------------------------------------------------------------------------------------------------------




--------------------------------------- Iteration      1(   4)  ---------------------------------------


     EDDAV:  cpu time   45.2191: real time   45.2683
       DOS:  cpu time    0.0058: real time    0.0058
    --------------------------------------------
      LOOP:  cpu time   45.2249: real time   45.2741

 eigenvalue-minimisations  : 19680
 total energy-change (2. order) :-0.1890448E+02  (-0.1871990E+02)
 number of electron     604.0000000 magnetization      -0.0000000
 augmentation part      604.0000000 magnetization      -0.0000000

 Free energy of the ion-electron system (eV)
  ---------------------------------------------------
  alpha Z        PSCENC =      1052.75148057
  Ewald energy   TEWEN  =    -13213.16288182
  -Hartree energ DENC   =    -14086.89736337
  -exchange      EXHF   =         0.00000000
  -V(xc)+E(xc)   XCENC  =      2126.94185026
  PAW double counting   =     22087.95224925   -22402.63741193
  entropy T*S    EENTRO =        -0.01670011
  eigenvalues    EBANDS =     -5546.69346438
  atomic energy  EATOM  =     28691.81066055
  Solvation  Ediel_sol  =         0.00000000
  ---------------------------------------------------
  free energy    TOTEN  =     -1289.95158099 eV

  energy without entropy =    -1289.93488088  energy(sigma->0) =    -1289.94323093


--------------------------------------------------------------------------------------------------------




--------------------------------------- Iteration      1(   5)  ---------------------------------------


     EDDAV:  cpu time   48.3719: real time   48.4236
       DOS:  cpu time    0.0062: real time    0.0062
    CHARGE:  cpu time    1.0937: real time    1.0959
    MIXING:  cpu time    0.0186: real time    0.0201
    --------------------------------------------
      LOOP:  cpu time   49.4903: real time   49.5458

 eigenvalue-minimisations  : 21856
 total energy-change (2. order) :-0.7009299E+00  (-0.6998693E+00)
 number of electron     603.9999951 magnetization       0.0000589
 augmentation part       35.7857645 magnetization      -0.0026106

 Broyden mixing:
  rms(total) = 0.91582E+01    rms(broyden)= 0.91575E+01
  rms(prec ) = 0.97783E+01
  weight for this iteration     100.00

 Free energy of the ion-electron system (eV)
  ---------------------------------------------------
  alpha Z        PSCENC =      1052.75148057
  Ewald energy   TEWEN  =    -13213.16288182
  -Hartree energ DENC   =    -14086.89736337
  -exchange      EXHF   =         0.00000000
  -V(xc)+E(xc)   XCENC  =      2126.94185026
  PAW double counting   =     22087.95224925   -22402.63741193
  entropy T*S    EENTRO =        -0.01673176
  eigenvalues    EBANDS =     -5547.39436262
  atomic energy  EATOM  =     28691.81066055
  Solvation  Ediel_sol  =         0.00000000
  ---------------------------------------------------
  free energy    TOTEN  =     -1290.65251087 eV

  energy without entropy =    -1290.63577912  energy(sigma->0) =    -1290.64414500


--------------------------------------------------------------------------------------------------------




--------------------------------------- Iteration      1(   6)  ---------------------------------------


    POTLOK:  cpu time    0.1808: real time    0.1808
    SETDIJ:  cpu time    0.0640: real time    0.0640
     EDDAV:  cpu time   55.7356: real time   55.7943
       DOS:  cpu time    0.0061: real time    0.0061
    CHARGE:  cpu time    1.1232: real time    1.1242
    MIXING:  cpu time    0.0080: real time    0.0191
    --------------------------------------------
      LOOP:  cpu time   57.1178: real time   57.1885

 eigenvalue-minimisations  : 24576
 total energy-change (2. order) :-0.2927225E+03  (-0.3441797E+03)
 number of electron     603.9999974 magnetization       0.0011007
 augmentation part       56.8915579 magnetization      -0.1055071

 Broyden mixing:
  rms(total) = 0.25284E+02    rms(broyden)= 0.25284E+02
  rms(prec ) = 0.25618E+02
  weight for this iteration     100.00

 eigenvalues of (default mixing * dielectric matrix)
  average eigenvalue GAMMA=   0.0960
  0.0960

 Free energy of the ion-electron system (eV)
  ---------------------------------------------------
  alpha Z        PSCENC =      1052.75148057
  Ewald energy   TEWEN  =    -13213.16288182
  -Hartree energ DENC   =    -14573.08351051
  -exchange      EXHF   =         0.00000000
  -V(xc)+E(xc)   XCENC  =      2159.62819593
  PAW double counting   =     32825.64223573   -33041.46286457
  entropy T*S    EENTRO =        -0.02731387
  eigenvalues    EBANDS =     -5485.47103381
  atomic energy  EATOM  =     28691.81066055
  Solvation  Ediel_sol  =         0.00000000
  ---------------------------------------------------
  free energy    TOTEN  =     -1583.37503181 eV

  energy without entropy =    -1583.34771794  energy(sigma->0) =    -1583.36137487


--------------------------------------------------------------------------------------------------------




--------------------------------------- Iteration      1(   7)  ---------------------------------------


    POTLOK:  cpu time    0.1690: real time    0.1690
    SETDIJ:  cpu time    0.0631: real time    0.0631
     EDDAV:  cpu time   43.1451: real time   43.1919
       DOS:  cpu time    0.0066: real time    0.0067
    CHARGE:  cpu time    1.0824: real time    1.0842
    MIXING:  cpu time    0.0057: real time    0.0097
    --------------------------------------------
      LOOP:  cpu time   44.4719: real time   44.5246

 eigenvalue-minimisations  : 18496
 total energy-change (2. order) : 0.1033193E+03  (-0.3119084E+02)
 number of electron     603.9999976 magnetization      -0.0053226
 augmentation part       55.6110637 magnetization      -0.0092559

 Broyden mixing:
  rms(total) = 0.16681E+02    rms(broyden)= 0.16681E+02
  rms(prec ) = 0.17026E+02
  weight for this iteration     100.00

 eigenvalues of (default mixing * dielectric matrix)
  average eigenvalue GAMMA=   0.4461
  0.4461  0.4461

 Free energy of the ion-electron system (eV)
  ---------------------------------------------------
  alpha Z        PSCENC =      1052.75148057
  Ewald energy   TEWEN  =    -13213.16288182
  -Hartree energ DENC   =    -14644.47967473
  -exchange      EXHF   =         0.00000000
  -V(xc)+E(xc)   XCENC  =      2162.78776068
  PAW double counting   =     34232.05906169   -34474.80103172
  entropy T*S    EENTRO =        -0.02472553
  eigenvalues    EBANDS =     -5286.99641785
  atomic energy  EATOM  =     28691.81066055
  Solvation  Ediel_sol  =         0.00000000
  ---------------------------------------------------
  free energy    TOTEN  =     -1480.05576815 eV

  energy without entropy =    -1480.03104262  energy(sigma->0) =    -1480.04340539


--------------------------------------------------------------------------------------------------------




--------------------------------------- Iteration      1(   8)  ---------------------------------------


    POTLOK:  cpu time    0.1684: real time    0.1684
    SETDIJ:  cpu time    0.0634: real time    0.0634
     EDDAV:  cpu time   52.4802: real time   52.5343
       DOS:  cpu time    0.0058: real time    0.0058
    CHARGE:  cpu time    1.0773: real time    1.0784
    MIXING:  cpu time    0.0051: real time    0.0066
    --------------------------------------------
      LOOP:  cpu time   53.8001: real time   53.8569

 eigenvalue-minimisations  : 23680
 total energy-change (2. order) : 0.2818196E+03  (-0.5480088E+02)
 number of electron     603.9999965 magnetization      -0.0069196
 augmentation part       52.5187080 magnetization       0.0477279

 Broyden mixing:
  rms(total) = 0.61234E+01    rms(broyden)= 0.61230E+01
  rms(prec ) = 0.72150E+01
  weight for this iteration     100.00

 eigenvalues of (default mixing * dielectric matrix)
  average eigenvalue GAMMA=   0.4888
  0.5592  0.5592  0.3480

 Free energy of the ion-electron system (eV)
  ---------------------------------------------------
  alpha Z        PSCENC =      1052.75148057
  Ewald energy   TEWEN  =    -13213.16288182
  -Hartree energ DENC   =    -14864.62480988
  -exchange      EXHF   =         0.00000000
  -V(xc)+E(xc)   XCENC  =      2177.53611428
  PAW double counting   =     39649.34083667   -39979.13769792
  entropy T*S    EENTRO =        -0.03013856
  eigenvalues    EBANDS =     -4712.71969122
  atomic energy  EATOM  =     28691.81066055
  Solvation  Ediel_sol  =         0.00000000
  ---------------------------------------------------
  free energy    TOTEN  =     -1198.23612734 eV

  energy without entropy =    -1198.20598878  energy(sigma->0) =    -1198.22105806


--------------------------------------------------------------------------------------------------------




--------------------------------------- Iteration      1(   9)  ---------------------------------------


    POTLOK:  cpu time    0.1684: real time    0.1695
    SETDIJ:  cpu time    0.0631: real time    0.0631
     EDDAV:  cpu time   50.0694: real time   50.1205
       DOS:  cpu time    0.0063: real time    0.0063
    CHARGE:  cpu time    1.0749: real time    1.0760
    MIXING:  cpu time    0.0046: real time    0.0046
    --------------------------------------------
      LOOP:  cpu time   51.3867: real time   51.4400

 eigenvalue-minimisations  : 22240
 total energy-change (2. order) : 0.3888617E+02  (-0.4925534E+02)
 number of electron     603.9999964 magnetization      -0.0067847
 augmentation part       41.5626201 magnetization      -0.0162197

 Broyden mixing:
  rms(total) = 0.36829E+01    rms(broyden)= 0.36822E+01
  rms(prec ) = 0.40768E+01
  weight for this iteration     100.00

 eigenvalues of (default mixing * dielectric matrix)
  average eigenvalue GAMMA=   0.4732
  0.7360  0.4464  0.4464  0.2639

 Free energy of the ion-electron system (eV)
  ---------------------------------------------------
  alpha Z        PSCENC =      1052.75148057
  Ewald energy   TEWEN  =    -13213.16288182
  -Hartree energ DENC   =    -14950.79818383
  -exchange      EXHF   =         0.00000000
  -V(xc)+E(xc)   XCENC  =      2182.24301055
  PAW double counting   =     41320.72668050   -41668.19111019
  entropy T*S    EENTRO =        -0.03881393
  eigenvalues    EBANDS =     -4574.69079918
  atomic energy  EATOM  =     28691.81066055
  Solvation  Ediel_sol  =         0.00000000
  ---------------------------------------------------
  free energy    TOTEN  =     -1159.34995678 eV

  energy without entropy =    -1159.31114285  energy(sigma->0) =    -1159.33054981


--------------------------------------------------------------------------------------------------------




--------------------------------------- Iteration      1(  10)  ---------------------------------------


    POTLOK:  cpu time    0.1679: real time    0.1686
    SETDIJ:  cpu time    0.0634: real time    0.0634
     EDDAV:  cpu time   45.6839: real time   45.7324
       DOS:  cpu time    0.0066: real time    0.0066
    CHARGE:  cpu time    1.0738: real time    1.0758
    MIXING:  cpu time    0.0048: real time    0.0048
    --------------------------------------------
      LOOP:  cpu time   47.0003: real time   47.0516

 eigenvalue-minimisations  : 20416
 total energy-change (2. order) :-0.7420168E+00  (-0.1606681E+02)
 number of electron     603.9999963 magnetization      -0.0291294
 augmentation part       42.9237962 magnetization       0.7920934

 Broyden mixing:
  rms(total) = 0.48801E+01    rms(broyden)= 0.48800E+01
  rms(prec ) = 0.51336E+01
  weight for this iteration     100.00

 eigenvalues of (default mixing * dielectric matrix)
  average eigenvalue GAMMA=   0.4343
  0.8064  0.4393  0.4393  0.2836  0.2032

 Free energy of the ion-electron system (eV)
  ---------------------------------------------------
  alpha Z        PSCENC =      1052.75148057
  Ewald energy   TEWEN  =    -13213.16288182
  -Hartree energ DENC   =    -15116.46779429
  -exchange      EXHF   =         0.00000000
  -V(xc)+E(xc)   XCENC  =      2190.40647238
  PAW double counting   =     47081.16613193   -47430.96593645
  entropy T*S    EENTRO =        -0.05361825
  eigenvalues    EBANDS =     -4415.57648825
  atomic energy  EATOM  =     28691.81066055
  Solvation  Ediel_sol  =         0.00000000
  ---------------------------------------------------
  free energy    TOTEN  =     -1160.09197361 eV

  energy without entropy =    -1160.03835537  energy(sigma->0) =    -1160.06516449


--------------------------------------------------------------------------------------------------------




--------------------------------------- Iteration      1(  11)  ---------------------------------------


    POTLOK:  cpu time    0.1696: real time    0.1696
    SETDIJ:  cpu time    0.0631: real time    0.0631
     EDDAV:  cpu time   49.0180: real time   49.0691
       DOS:  cpu time    0.0067: real time    0.0067
    CHARGE:  cpu time    1.0821: real time    1.0841
    MIXING:  cpu time    0.0049: real time    0.0049
    --------------------------------------------
      LOOP:  cpu time   50.3445: real time   50.3976

 eigenvalue-minimisations  : 22304
 total energy-change (2. order) :-0.1362573E+02  (-0.3978584E+02)
 number of electron     603.9999961 magnetization      -0.0698956
 augmentation part       40.3184063 magnetization      -0.1832778

 Broyden mixing:
  rms(total) = 0.69476E+01    rms(broyden)= 0.69475E+01
  rms(prec ) = 0.74025E+01
  weight for this iteration     100.00

 eigenvalues of (default mixing * dielectric matrix)
  average eigenvalue GAMMA=   0.5344
  1.5421  0.4652  0.4652  0.3891  0.2532  0.0914

 Free energy of the ion-electron system (eV)
  ---------------------------------------------------
  alpha Z        PSCENC =      1052.75148057
  Ewald energy   TEWEN  =    -13213.16288182
  -Hartree energ DENC   =    -15152.12216973
  -exchange      EXHF   =         0.00000000
  -V(xc)+E(xc)   XCENC  =      2192.64985526
  PAW double counting   =     48427.84840900   -48776.88754653
  entropy T*S    EENTRO =        -0.04573101
  eigenvalues    EBANDS =     -4396.55978179
  atomic energy  EATOM  =     28691.81066055
  Solvation  Ediel_sol  =         0.00000000
  ---------------------------------------------------
  free energy    TOTEN  =     -1173.71770551 eV

  energy without entropy =    -1173.67197449  energy(sigma->0) =    -1173.69484000


--------------------------------------------------------------------------------------------------------




--------------------------------------- Iteration      1(  12)  ---------------------------------------


    POTLOK:  cpu time    0.1688: real time    0.1688
    SETDIJ:  cpu time    0.0635: real time    0.0635
     EDDAV:  cpu time   48.6807: real time   48.7319
       DOS:  cpu time    0.0066: real time    0.0066
    CHARGE:  cpu time    1.0820: real time    1.0831
    MIXING:  cpu time    0.0048: real time    0.0048
    --------------------------------------------
      LOOP:  cpu time   50.0065: real time   50.0587

 eigenvalue-minimisations  : 21792
 total energy-change (2. order) : 0.1051418E+02  (-0.3616795E+02)
 number of electron     603.9999978 magnetization      -0.0650900
 augmentation part       44.5618832 magnetization      -0.6653543

 Broyden mixing:
  rms(total) = 0.54042E+01    rms(broyden)= 0.54041E+01
  rms(prec ) = 0.59177E+01
  weight for this iteration     100.00

 eigenvalues of (default mixing * dielectric matrix)
  average eigenvalue GAMMA=   0.5269
  1.8353  0.4733  0.4733  0.3712  0.2320  0.2320  0.0709

 Free energy of the ion-electron system (eV)
  ---------------------------------------------------
  alpha Z        PSCENC =      1052.75148057
  Ewald energy   TEWEN  =    -13213.16288182
  -Hartree energ DENC   =    -15284.12412711
  -exchange      EXHF   =         0.00000000
  -V(xc)+E(xc)   XCENC  =      2202.92281154
  PAW double counting   =     53937.34800470   -54284.90877622
  entropy T*S    EENTRO =        -0.02496232
  eigenvalues    EBANDS =     -4265.81573623
  atomic energy  EATOM  =     28691.81066055
  Solvation  Ediel_sol  =         0.00000000
  ---------------------------------------------------
  free energy    TOTEN  =     -1163.20352635 eV

  energy without entropy =    -1163.17856403  energy(sigma->0) =    -1163.19104519


--------------------------------------------------------------------------------------------------------




--------------------------------------- Iteration      1(  13)  ---------------------------------------


    POTLOK:  cpu time    0.1697: real time    0.1697
    SETDIJ:  cpu time    0.0631: real time    0.0631
     EDDAV:  cpu time   46.5769: real time   46.6257
       DOS:  cpu time    0.0061: real time    0.0062
    CHARGE:  cpu time    1.0767: real time    1.0776
    MIXING:  cpu time    0.0049: real time    0.0049
    --------------------------------------------
      LOOP:  cpu time   47.8975: real time   47.9472

 eigenvalue-minimisations  : 20736
 total energy-change (2. order) : 0.4535605E+01  (-0.2380177E+02)
 number of electron     603.9999966 magnetization      -0.0257989
 augmentation part       44.4621357 magnetization      -1.4509942

 Broyden mixing:
  rms(total) = 0.47562E+01    rms(broyden)= 0.47562E+01
  rms(prec ) = 0.53860E+01
  weight for this iteration     100.00

 eigenvalues of (default mixing * dielectric matrix)
  average eigenvalue GAMMA=   0.4995
  2.0015  0.4763  0.4763  0.3515  0.2768  0.2768  0.0683  0.0683

 Free energy of the ion-electron system (eV)
  ---------------------------------------------------
  alpha Z        PSCENC =      1052.75148057
[...]
   80            fft3d_mpi                            37.076527                     9000   5
   81              fftbas_plan_mpi                      37.043884                   9000   6
   82                dfftw_execute                        17.359864                27000   7
   83                map_forward                          14.807405                18000   7
   84                  map_gather                            3.563308               9000   8
   85                  m_alltoallv_z                         3.554552               9000   8
   86                  map_scatter                           4.611696               9000   8
   87          pw_charge                             4.469070                       9000   4
   88          fft3d_mpi                             0.278781                         90   4
   89            fftbas_plan_mpi                       0.250910                       90   5
   90              dfftw_execute                         0.079163                    270   6
   91              map_backward                          0.124193                    180   6
   92                map_gather                            0.045130                  180   7
   93                m_alltoallv_z                         0.074252                  180   7
   94                map_scatter                           0.002646                  180   7
   95        depsum                                0.196922                           45   3
   96        fft3d_mpi                             0.252309                           90   3
   97          fftbas_plan_mpi                       0.242995                         90   4
   98            dfftw_execute                         0.053796                      270   5
   99            map_backward                          0.129049                      180   5
  100              map_gather                            0.008265                     90   6
  101              m_alltoallv_z                         0.108319                     90   6
  102              map_scatter                           0.011004                     90   6
  103      brmix                                 0.437615                             45   2
  104        brpre                                 0.004740                           90   3
  105        setg0                                 0.047706                           47   3
  106        broyd                                 0.275826                           45   3
  107          brsav                                 0.012531                       1223   4
  108          brget                                 0.026386                       5598   4
  109      force_and_stress                     32.205528                              1   2
  110        set_charge                            1.072589                            1   3
  111          soft_charge                           1.023081                          1   4
  112            fftwav_mpi                            0.908963                      200   5
  113              fft3d_mpi                             0.818427                    200   6
  114                fftbas_plan_mpi                       0.817684                  200   7
  115                  dfftw_execute                         0.383306                600   8
  116                  map_forward                           0.325495                400   8
  117                    map_gather                            0.076544              200   9
  118                    m_alltoallv_z                         0.078078              200   9
  119                    map_scatter                           0.101681              200   9
  120            pw_charge                             0.098021                      200   5
  121            fft3d_mpi                             0.005998                        2   5
  122              fftbas_plan_mpi                       0.005415                      2   6
  123                dfftw_execute                         0.001828                    6   7
  124                map_backward                          0.002475                    4   7
  125                  map_gather                            0.000887                  4   8
  126                  m_alltoallv_z                         0.001480                  4   8
  127                  map_scatter                           0.000060                  4   8
  128          depsum                                0.004430                          1   4
  129          fft3d_mpi                             0.005760                          2   4
  130            fftbas_plan_mpi                       0.005555                        2   5
  131              dfftw_execute                         0.001271                      6   6
  132              map_backward                          0.003004                      4   6
  133                map_gather                            0.000240                    2   7
  134                m_alltoallv_z                         0.002507                    2   7
  135                map_scatter                           0.000222                    2   7
  136        forloc                                0.077969                            1   3
  137        fornlr                                5.238888                            1   3
  138          rspher_all                            0.093825                          3   4
  139          phaser                                0.448389                         30   4
  140          rpro_isp                              4.481853                         30   4
  141            fftwav_mpi                            3.214342                      720   5
  142              fft3d_mpi                             2.887370                    720   6
  143                fftbas_plan_mpi                       2.884868                  720   7
  144                  dfftw_execute                         1.361217               2160   8
  145                  map_forward                           1.137918               1440   8
  146                    map_gather                            0.265038              720   9
  147                    m_alltoallv_z                         0.273818              720   9
  148                    map_scatter                           0.360111              720   9
  149            rpromu                                1.259420                      180   5
  150              crrexp_mul_wave                       0.639380                 112320   6
  151              rpromu_gemm                           0.407884                  28080   6
  152        fordep                                0.199294                            1   3
  153          setdij_                               0.198772                          6   4
  154        setdij_                               0.658292                           20   3
  155        set_dd_paw                            0.053758                            1   3
  156        strkin                                0.020814                            1   3
  157        strelo                                0.004232                            1   3
  158        strnlr                               15.590607                            1   3
  159          rspher_all                            0.284421                          9   4
  160          phaser                                1.350451                         90   4
  161          rpro_isp                             13.398693                         90   4
  162            fftwav_mpi                            9.623546                     2160   5
  163              fft3d_mpi                             8.663394                   2160   6
  164                fftbas_plan_mpi                       8.655538                 2160   7
  165                  dfftw_execute                         4.082045               6480   8
  166                  map_forward                           3.413486               4320   8
  167                    map_gather                            0.797118             2160   9
  168                    m_alltoallv_z                         0.818498             2160   9
  169                    map_scatter                           1.082421             2160   9
  170            rpromu                                3.756323                      540   5
  171              crrexp_mul_wave                       1.914507                 336960   6
  172              rpromu_gemm                           1.217406                  84240   6
  173        fft3d_mpi                             0.067817                           22   3
  174          fftbas_plan_mpi                       0.065141                         22   4
  175            dfftw_execute                         0.013468                       66   5
  176            map_forward                           0.017927                       20   5
  177              map_gather                            0.000813                     10   6
  178              m_alltoallv_z                         0.015777                     10   6
  179              map_scatter                           0.001157                     10   6
  180            map_backward                          0.017745                       24   5
  181              map_gather                            0.001385                     12   6
  182              m_alltoallv_z                         0.014767                     12   6
  183              map_scatter                           0.001384                     12   6
  184        forhar                                0.139527                            2   3
  185        strehar                               0.003912                            1   3
  186        chggra                                0.013515                            1   3
  187          fft3d_mpi                             0.010537                          3   4
  188            fftbas_plan_mpi                       0.010162                        3   5
  189              dfftw_execute                         0.001847                      9   6
  190              map_forward                           0.004663                      4   6
  191                map_gather                            0.000134                    2   7
  192                m_alltoallv_z                         0.004287                    2   7
  193                map_scatter                           0.000211                    2   7
  194              map_backward                          0.001569                      2   6
  195                map_gather                            0.000094                    1   7
  196                m_alltoallv_z                         0.001271                    1   7
  197                map_scatter                           0.000185                    1   7
  198        brmix                                 0.017122                            1   3
  199          brpre                                 0.000077                          2   4
  200          setg0                                 0.000997                          1   4
  201          broyd                                 0.013252                          1   4
  202            brget                                 0.002072                      366   5
  203            brsav                                 0.000779                      163   5
 
 Flat profile
 ============
 
             routine name                   CPU           calls
 ---------------------------------------------------------------
 eddav                                1044.900535          50
 total_time                            374.054564           1
 dfftw_execute                         253.202236      397659
 redis_pw                              198.901357      120837
 orth1                                 143.356162      131037
 redis_proj                             80.564798      152456
 fftbas_plan_mpi                        73.521363      132555
 map_scatter                            68.474749      132739
 crrexp_mul_work_add                    63.286974     6801444
 racc0                                  60.628286       43599
 map_gather                             58.298840      132739
 m_alltoallv_z                          57.026064      132739
 fftwav_mpi                             53.934344       87518
 rpro1                                  39.636768       31599
 map_forward                            37.716818      176386
 vhamil                                 31.541166       43599
 crrexp_mul_wave                        30.887549     5416164
 lincom                                 21.392816        1020
 phaser                                 16.875372        1130
 force_and_stress                        9.047193           1
 w1_copy                                 8.048044      130797
 fftext_mpi                              6.566661       43599
 eccp                                    6.397945       12000
 pw_charge                               4.567091        9200
 kinhamil                                3.833285       43599
 setdij_                                 2.447488          74
 overl                                   2.277024       75218
 apply_precond                           2.167399       31599
 set_charge                              1.830857          46
 rpromu_gemm                             1.790818      121680
 overl1                                  1.617212       43599
 set_dd_paw                              1.476407          48
 setup_precond                           1.395482       12000
 rpromu                                  0.910699         780
 map_backward                            0.844783       88720
 fft3d_mpi                               0.710810      132553
 hamiltmu                                0.600791       43599
 strnlr                                  0.557042           1
 soft_charge                             0.536226          46
 rspher_all                              0.426932          14
 choleski                                0.403777          20
 orthch                                  0.344453           1
 raccmu_                                 0.270373       43599
 broyd                                   0.247310          46
 fornlr                                  0.214821           1
 depsum                                  0.201352          46
 w1_projall                              0.196832       31599
 forhar                                  0.139527           2
 brmix                                   0.112139          46
 forloc                                  0.077969           1
 setg0                                   0.048703          48
 truncate_high_frequency_w1              0.044027       55599
 brgrid                                  0.032935           1
 rpro_isp                                0.029222         130
 brget                                   0.028458        5964
 strkin                                  0.020814           1
 brsav                                   0.013310        1386
 brpre                                   0.004817          92
 strelo                                  0.004232           1
 strehar                                 0.003912           1
 chggra                                  0.002978           1
 fordep                                  0.000522           1
 redis_pw_over_bands                     0.000001           1
 ---------------------------------------------------------------
  summed up times    2768.69343400002     
 
 Accumulative profile
 ====================
 
             routine name                   CPU           calls
 ---------------------------------------------------------------
 total_time                           2768.693434           1
 eddav                                2302.246927          50
 fft3d_mpi                             549.752886      132553
 fftbas_plan_mpi                       549.084855      132555
 fftwav_mpi                            433.183311       87518
 hamiltmu                              334.260198       43599
 dfftw_execute                         253.202236      397659
 redis_pw                              198.901357      120837
 kinhamil                              176.315397       43599
 fftext_mpi                            172.482112       43599
 map_forward                           161.400609      176386
 orth1                                 143.356162      131037
 raccmu_                               125.802845       43599
 racc0                                 123.915260       43599
 redis_proj                             80.564798      152456
 map_scatter                            68.474749      132739
 w1_projall                             67.947920       31599
 rpro1                                  67.751087       31599
 crrexp_mul_work_add                    63.286974     6801444
 map_backward                           60.960647       88720
 map_gather                             58.298840      132739
 m_alltoallv_z                          57.026064      132739
 set_charge                             49.778606          46
 soft_charge                            47.488328          46
 force_and_stress                       32.205528           1
 vhamil                                 31.541166       43599
 crrexp_mul_wave                        30.887549     5416164
 lincom                                 21.392816        1020
 rpro_isp                               19.442223         130
 phaser                                 16.875372        1130
 strnlr                                 15.590607           1
 w1_copy                                 8.048044      130797
 eccp                                    6.397945       12000
 rpromu                                  5.474747         780
 fornlr                                  5.238888           1
 pw_charge                               4.567091        9200
 setdij_                                 2.447488          74
 overl                                   2.277024       75218
 orthch                                  2.224040           1
 apply_precond                           2.167399       31599
 rpromu_gemm                             1.790818      121680
 overl1                                  1.617212       43599
 set_dd_paw                              1.476407          48
 setup_precond                           1.395482       12000
 brmix                                   0.454737          46
 rspher_all                              0.426932          14
 choleski                                0.403777          20
 broyd                                   0.289078          46
 depsum                                  0.201352          46
 fordep                                  0.199294           1
 forhar                                  0.139527           2
 forloc                                  0.077969           1
 setg0                                   0.048703          48
 truncate_high_frequency_w1              0.044027       55599
 brgrid                                  0.032935           1
 brget                                   0.028458        5964
 strkin                                  0.020814           1
 chggra                                  0.013515           1
 brsav                                   0.013310        1386
 brpre                                   0.004817          92
 strelo                                  0.004232           1
 strehar                                 0.003912           1
 redis_pw_over_bands                     0.000001           1
 ---------------------------------------------------------------
 
Profiling took   8.213035  4.779224  0.012733  0.012373 seconds
Profiling took   9.467419 seconds
