       N       E                     dE             d eps       ncg     rms          rms(c)
DAV:   1     0.463864468465E+04    0.46386E+04   -0.30713E+05  9216   0.157E+03
DAV:   2    -0.685568606545E+03   -0.53242E+04   -0.51276E+04 11168   0.348E+02
DAV:   3    -0.127153561867E+04   -0.58597E+03   -0.57561E+03 11136   0.126E+02
DAV:   4    -0.129650350917E+04   -0.24968E+02   -0.24712E+02 13408   0.328E+01
DAV:   5    -0.129704210583E+04   -0.53860E+00   -0.53669E+00 11936   0.395E+00
DAV:   6    -0.129707376029E+04   -0.31654E-01   -0.31639E-01 14240   0.113E+00
DAV:   7    -0.129707427406E+04   -0.51376E-03   -0.51356E-03 12032   0.107E-01
DAV:   8    -0.129707429180E+04   -0.17741E-04   -0.17739E-04 14176   0.232E-02    0.959E+01
DAV:   9    -0.169121633719E+04   -0.39414E+03   -0.43600E+03 15776   0.906E+01    0.384E+02
DAV:  10    -0.161388215411E+04    0.77334E+02   -0.38406E+02 11648   0.323E+01    0.258E+02
DAV:  11    -0.127527889224E+04    0.33860E+03   -0.13465E+03 14112   0.895E+01    0.105E+02
DAV:  12    -0.118029041453E+04    0.94988E+02   -0.99278E+02 13184   0.810E+01    0.391E+01
DAV:  13    -0.117612058825E+04    0.41698E+01   -0.49933E+02 12224   0.311E+01    0.381E+01
DAV:  14    -0.118099090515E+04   -0.48703E+01   -0.21503E+02 12448   0.181E+01    0.563E+01
DAV:  15    -0.119714576762E+04   -0.16155E+02   -0.48661E+02 13280   0.347E+01    0.733E+01
DAV:  16    -0.116599986202E+04    0.31146E+02   -0.13852E+02 12800   0.251E+01    0.238E+01
DAV:  17    -0.116920913624E+04   -0.32093E+01   -0.56746E+01 13568   0.136E+01    0.359E+01
DAV:  18    -0.116781002865E+04    0.13991E+01   -0.22045E+01 13600   0.989E+00    0.164E+01
DAV:  19    -0.117030288194E+04   -0.24929E+01   -0.23672E+01 13952   0.797E+00    0.264E+01
DAV:  20    -0.117040296905E+04   -0.10009E+00   -0.15175E+01 13504   0.726E+00    0.175E+01
DAV:  21    -0.117102262406E+04   -0.61966E+00   -0.13512E+00 12512   0.285E+00    0.150E+01
DAV:  22    -0.117152853751E+04   -0.50591E+00   -0.23736E+00 12736   0.265E+00    0.122E+01
DAV:  23    -0.117218414637E+04   -0.65561E+00   -0.92896E-01 12640   0.150E+00    0.130E+01
DAV:  24    -0.117217296066E+04    0.11186E-01   -0.13828E-01 12736   0.108E+00    0.129E+01
DAV:  25    -0.117223963759E+04   -0.66677E-01   -0.17621E-02 12672   0.423E-01    0.131E+01
DAV:  26    -0.117236516215E+04   -0.12552E+00   -0.20277E-02 12064   0.507E-01    0.127E+01
DAV:  27    -0.117262126538E+04   -0.25610E+00   -0.41189E-02 11456   0.597E-01    0.124E+01
DAV:  28    -0.117310702238E+04   -0.48576E+00   -0.45155E-01 12160   0.225E+00    0.863E+00
DAV:  29    -0.117292677364E+04    0.18025E+00   -0.47220E-01 11104   0.166E+00    0.622E+00
DAV:  30    -0.117250177170E+04    0.42500E+00   -0.27841E-01 12608   0.151E+00    0.456E+00
DAV:  31    -0.117246649359E+04    0.35278E-01   -0.29865E-01 12160   0.856E-01    0.451E+00
DAV:  32    -0.117262587895E+04   -0.15939E+00   -0.53923E-01 12032   0.961E-01    0.402E+00
DAV:  33    -0.117260329637E+04    0.22583E-01   -0.42911E-01 12000   0.105E+00    0.311E+00
DAV:  34    -0.117275032869E+04   -0.14703E+00   -0.15502E-01 11904   0.688E-01    0.279E+00
DAV:  35    -0.117281245177E+04   -0.62123E-01   -0.58146E-02 12192   0.483E-01    0.229E+00
DAV:  36    -0.117287171197E+04   -0.59260E-01   -0.24085E-02 12544   0.338E-01    0.206E+00
DAV:  37    -0.117295280083E+04   -0.81089E-01   -0.16131E-02 12096   0.303E-01    0.165E+00
DAV:  38    -0.117306754883E+04   -0.11475E+00   -0.26959E-02 11360   0.375E-01    0.124E+00
DAV:  39    -0.117314063388E+04   -0.73085E-01   -0.20901E-02 12096   0.284E-01    0.953E-01
DAV:  40    -0.117321451314E+04   -0.73879E-01   -0.16747E-02 11232   0.238E-01    0.618E-01
DAV:  41    -0.117330480693E+04   -0.90294E-01   -0.14408E-02 11456   0.282E-01    0.532E-01
DAV:  42    -0.117332841848E+04   -0.23612E-01   -0.36597E-03 12768   0.191E-01    0.574E-01
DAV:  43    -0.117334093907E+04   -0.12521E-01   -0.21637E-03 12512   0.128E-01    0.491E-01
DAV:  44    -0.117334773827E+04   -0.67992E-02   -0.13021E-03 12640   0.104E-01    0.419E-01
DAV:  45    -0.117335153712E+04   -0.37989E-02   -0.81811E-04 12736   0.877E-02    0.336E-01
DAV:  46    -0.117335293121E+04   -0.13941E-02   -0.40991E-04 12640   0.802E-02    0.241E-01
DAV:  47    -0.117335351795E+04   -0.58675E-03   -0.38138E-04 12448   0.610E-02    0.204E-01
DAV:  48    -0.117335415713E+04   -0.63918E-03   -0.19353E-04 11936   0.317E-02    0.178E-01
DAV:  49    -0.117335462684E+04   -0.46971E-03   -0.57627E-05 12384   0.176E-02    0.154E-01
DAV:  50    -0.117335513542E+04   -0.50858E-03   -0.70317E-05 11808   0.178E-02    0.128E-01
DAV:  51    -0.117335536126E+04   -0.22585E-03   -0.52341E-05 12576   0.178E-02    0.965E-02
DAV:  52    -0.117335548526E+04   -0.12399E-03   -0.32522E-05 11264   0.112E-02    0.747E-02
DAV:  53    -0.117335553934E+04   -0.54079E-04   -0.29970E-05 11200   0.889E-03    0.597E-02
DAV:  54    -0.117335551972E+04    0.19620E-04   -0.52812E-05 12256   0.221E-02    0.246E-02
DAV:  55    -0.117335554295E+04   -0.23236E-04   -0.13962E-05 10976   0.738E-03    0.173E-02
DAV:  56    -0.117335555682E+04   -0.13870E-04   -0.90954E-06  7904   0.519E-03    0.157E-02
DAV:  57    -0.117335556229E+04   -0.54713E-05   -0.53419E-06  8160   0.419E-03    0.149E-02
DAV:  58    -0.117335556455E+04   -0.22568E-05   -0.10664E-06  6688   0.296E-03    0.106E-02
DAV:  59    -0.117335556564E+04   -0.10907E-05   -0.93123E-07  7328   0.239E-03    0.633E-03
DAV:  60    -0.117335556596E+04   -0.31854E-06   -0.49670E-07  6656   0.158E-03
   1 F= -.11872557E+04 E0= -.11872385E+04  d E =-.118726E+04  mag=     0.0008
