 vasp.5.4.4.18Apr17-6-g9f103f2a35 (build May 22 2020 17:00:04) complex          
  
 executed on           IFC15_impi date 2020.09.23  01:05:38
 running on  128 total cores
 distrk:  each k-point on  128 cores,    1 groups
 distr:  one band on NCORES_PER_BAND=   4 cores,   32 groups


--------------------------------------------------------------------------------------------------------


 INCAR:
 POTCAR:    PAW_PBE C 08Apr2002                   
 POTCAR:    PAW_PBE Fe 06Sep2000                  
 POTCAR:    PAW_PBE H 15Jun2001                   
 POTCAR:    PAW_PBE N 08Apr2002                   
 POTCAR:    PAW_PBE O 08Apr2002                   

 ----------------------------------------------------------------------------- 
|                                                                             |
|           W    W    AA    RRRRR   N    N  II  N    N   GGGG   !!!           |
|           W    W   A  A   R    R  NN   N  II  NN   N  G    G  !!!           |
|           W    W  A    A  R    R  N N  N  II  N N  N  G       !!!           |
|           W WW W  AAAAAA  RRRRR   N  N N  II  N  N N  G  GGG   !            |
|           WW  WW  A    A  R   R   N   NN  II  N   NN  G    G                |
|           W    W  A    A  R    R  N    N  II  N    N   GGGG   !!!           |
|                                                                             |
|      For optimal performance we recommend to set                            |
|        NCORE= 4 - approx SQRT( number of cores)                             |
|      NCORE specifies how many cores store one orbital (NPAR=cpu/NCORE).     |
|      This setting can  greatly improve the performance of VASP for DFT.     |
|      The default,   NCORE=1            might be grossly inefficient         |
|      on modern multi-core architectures or massively parallel machines.     |
|      Do your own testing !!!!                                               |
|      Unfortunately you need to use the default for GW and RPA calculations. |
|      (for HF NCORE is supported but not extensively tested yet)             |
|                                                                             |
 ----------------------------------------------------------------------------- 

 POTCAR:    PAW_PBE C 08Apr2002                   
   VRHFIN =C: s2p2                                                              
   LEXCH  = PE                                                                  
   EATOM  =   147.1560 eV,   10.8157 Ry                                         
                                                                                
   TITEL  = PAW_PBE C 08Apr2002                                                 
   LULTRA =        F    use ultrasoft PP ?                                      
   IUNSCR =        1    unscreen: 0-lin 1-nonlin 2-no                           
   RPACOR =    1.200    partial core radius                                     
   POMASS =   12.011; ZVAL   =    4.000    mass and valenz                      
   RCORE  =    1.500    outmost cutoff radius                                   
   RWIGS  =    1.630; RWIGS  =    0.863    wigner-seitz radius (au A)           
   ENMAX  =  400.000; ENMIN  =  300.000 eV                                      
   ICORE  =        2    local potential                                         
   LCOR   =        T    correct aug charges                                     
   LPAW   =        T    paw PP                                                  
   EAUG   =  644.873                                                            
   DEXC   =    0.000                                                            
   RMAX   =    1.529    core radius for proj-oper                               
   RAUG   =    1.300    factor for augmentation sphere                          
   RDEP   =    1.501    radius for radial grids                                 
   RDEPT  =    1.300    core radius for aug-charge                              
                                                                                
   Atomic configuration                                                         
    4 entries                                                                   
     n  l   j            E        occ.                                          
     1  0  0.50      -273.3789   2.0000                                         
     2  0  0.50       -13.7508   2.0000                                         
     2  1  0.50        -5.2854   2.0000                                         
     3  2  1.50        -5.4423   0.0000                                         
   Description                                                                  
     l       E           TYP  RCUT    TYP  RCUT                                 
     0    -13.7508458     23  1.200                                             
     0     -8.2022199     23  1.200                                             
     1     -5.2854383     23  1.500                                             
     1     34.0145650     23  1.500                                             
     2     -5.4423304      7  1.500                                             
  local pseudopotential read in
  partial core-charges read in
  partial kinetic energy density read in
  atomic valenz-charges read in
  non local Contribution for L=           0  read in
    real space projection operators read in
  non local Contribution for L=           0  read in
    real space projection operators read in
  non local Contribution for L=           1  read in
    real space projection operators read in
  non local Contribution for L=           1  read in
    real space projection operators read in
    PAW grid and wavefunctions read in
 
   number of l-projection  operators is LMAX  =           4
   number of lm-projection operators is LMMAX =           8
 
 POTCAR:    PAW_PBE Fe 06Sep2000                  
   VRHFIN =Fe:  d7 s1                                                           
   LEXCH  = PE                                                                  
   EATOM  =   594.3153 eV,   43.6809 Ry                                         
                                                                                
   TITEL  = PAW_PBE Fe 06Sep2000                                                
   LULTRA =        F    use ultrasoft PP ?                                      
   IUNSCR =        1    unscreen: 0-lin 1-nonlin 2-no                           
   RPACOR =    2.000    partial core radius                                     
   POMASS =   55.847; ZVAL   =    8.000    mass and valenz                      
   RCORE  =    2.300    outmost cutoff radius                                   
   RWIGS  =    2.460; RWIGS  =    1.302    wigner-seitz radius (au A)           
   ENMAX  =  267.882; ENMIN  =  200.911 eV                                      
   RCLOC  =    1.701    cutoff for local pot                                    
   LCOR   =        T    correct aug charges                                     
   LPAW   =        T    paw PP                                                  
   EAUG   =  511.368                                                            
   DEXC   =    0.000                                                            
   RMAX   =    2.356    core radius for proj-oper                               
   RAUG   =    1.300    factor for augmentation sphere                          
   RDEP   =    2.442    radius for radial grids                                 
   RDEPT  =    1.890    core radius for aug-charge                              
                                                                                
   Atomic configuration                                                         
    9 entries                                                                   
     n  l   j            E        occ.                                          
     1  0  0.50     -6993.8440   2.0000                                         
     2  0  0.50      -814.6047   2.0000                                         
     2  1  1.50      -693.3689   6.0000                                         
     3  0  0.50       -89.4732   2.0000                                         
     3  1  1.50       -55.6373   6.0000                                         
     3  2  2.50        -3.8151   7.0000                                         
     4  0  0.50        -4.2551   1.0000                                         
     4  1  1.50        -3.4015   0.0000                                         
     4  3  2.50        -1.3606   0.0000                                         
   Description                                                                  
     l       E           TYP  RCUT    TYP  RCUT                                 
     2     -3.8151135     23  2.300                                             
     2     -5.1756961     23  2.300                                             
     0     -4.2550963     23  2.300                                             
     0      7.2035603     23  2.300                                             
     1     -2.7211652     23  2.300                                             
     1     18.4316424     23  2.300                                             
  local pseudopotential read in
  partial core-charges read in
  partial kinetic energy density read in
  atomic valenz-charges read in
  non local Contribution for L=           2  read in
    real space projection operators read in
  non local Contribution for L=           2  read in
    real space projection operators read in
  non local Contribution for L=           0  read in
    real space projection operators read in
  non local Contribution for L=           0  read in
    real space projection operators read in
  non local Contribution for L=           1  read in
    real space projection operators read in
  non local Contribution for L=           1  read in
    real space projection operators read in
    PAW grid and wavefunctions read in
 
   number of l-projection  operators is LMAX  =           6
   number of lm-projection operators is LMMAX =          18
 
 POTCAR:    PAW_PBE H 15Jun2001                   
   VRHFIN =H: ultrasoft test                                                    
   LEXCH  = PE                                                                  
   EATOM  =    12.4884 eV,    0.9179 Ry                                         
                                                                                
   TITEL  = PAW_PBE H 15Jun2001                                                 
   LULTRA =        F    use ultrasoft PP ?                                      
   IUNSCR =        0    unscreen: 0-lin 1-nonlin 2-no                           
   RPACOR =    0.000    partial core radius                                     
   POMASS =    1.000; ZVAL   =    1.000    mass and valenz                      
   RCORE  =    1.100    outmost cutoff radius                                   
   RWIGS  =    0.700; RWIGS  =    0.370    wigner-seitz radius (au A)           
   ENMAX  =  250.000; ENMIN  =  200.000 eV                                      
   RCLOC  =    0.701    cutoff for local pot                                    
   LCOR   =        T    correct aug charges                                     
   LPAW   =        T    paw PP                                                  
   EAUG   =  400.000                                                            
   RMAX   =    1.123    core radius for proj-oper                               
   RAUG   =    1.200    factor for augmentation sphere                          
   RDEP   =    1.112    radius for radial grids                                 
   RDEPT  =    0.926    core radius for aug-charge                              
                                                                                
   Atomic configuration                                                         
    2 entries                                                                   
     n  l   j            E        occ.                                          
     1  0  0.50        -6.4927   1.0000                                         
     2  1  0.50        -3.4015   0.0000                                         
   Description                                                                  
     l       E           TYP  RCUT    TYP  RCUT                                 
     0     -6.4927494     23  1.100                                             
     0      6.8029130     23  1.100                                             
     1     -4.0817478     23  1.100                                             
  local pseudopotential read in
  atomic valenz-charges read in
  non local Contribution for L=           0  read in
    real space projection operators read in
  non local Contribution for L=           0  read in
    real space projection operators read in
  non local Contribution for L=           1  read in
    real space projection operators read in
    PAW grid and wavefunctions read in
 
   number of l-projection  operators is LMAX  =           3
   number of lm-projection operators is LMMAX =           5
 
 POTCAR:    PAW_PBE N 08Apr2002                   
   VRHFIN =N: s2p3                                                              
   LEXCH  = PE                                                                  
   EATOM  =   264.5486 eV,   19.4438 Ry                                         
                                                                                
   TITEL  = PAW_PBE N 08Apr2002                                                 
   LULTRA =        F    use ultrasoft PP ?                                      
   IUNSCR =        1    unscreen: 0-lin 1-nonlin 2-no                           
   RPACOR =    1.200    partial core radius                                     
   POMASS =   14.001; ZVAL   =    5.000    mass and valenz                      
   RCORE  =    1.500    outmost cutoff radius                                   
   RWIGS  =    1.400; RWIGS  =    0.741    wigner-seitz radius (au A)           
   ENMAX  =  400.000; ENMIN  =  300.000 eV                                      
   ICORE  =        2    local potential                                         
   LCOR   =        T    correct aug charges                                     
   LPAW   =        T    paw PP                                                  
   EAUG   =  627.112                                                            
   DEXC   =    0.000                                                            
   RMAX   =    1.529    core radius for proj-oper                               
   RAUG   =    1.300    factor for augmentation sphere                          
   RDEP   =    1.514    radius for radial grids                                 
   RDEPT  =    1.338    core radius for aug-charge                              
                                                                                
   Atomic configuration                                                         
    4 entries                                                                   
     n  l   j            E        occ.                                          
     1  0  0.50      -384.7179   2.0000                                         
     2  0  0.50       -18.5828   2.0000                                         
     2  1  0.50        -7.0898   3.0000                                         
     3  2  1.50        -6.8029   0.0000                                         
   Description                                                                  
     l       E           TYP  RCUT    TYP  RCUT                                 
     0    -18.5828119     23  1.200                                             
     0    -13.5018863     23  1.200                                             
     1     -7.0897853     23  1.500                                             
     1      9.5240782     23  1.500                                             
     2     -6.8029130      7  1.500                                             
  local pseudopotential read in
  partial core-charges read in
  partial kinetic energy density read in
  atomic valenz-charges read in
  non local Contribution for L=           0  read in
    real space projection operators read in
  non local Contribution for L=           0  read in
    real space projection operators read in
  non local Contribution for L=           1  read in
    real space projection operators read in
  non local Contribution for L=           1  read in
    real space projection operators read in
    PAW grid and wavefunctions read in
 
   number of l-projection  operators is LMAX  =           4
   number of lm-projection operators is LMMAX =           8
 
 POTCAR:    PAW_PBE O 08Apr2002                   
   VRHFIN =O: s2p4                                                              
   LEXCH  = PE                                                                  
   EATOM  =   432.3788 eV,   31.7789 Ry                                         
                                                                                
   TITEL  = PAW_PBE O 08Apr2002                                                 
   LULTRA =        F    use ultrasoft PP ?                                      
   IUNSCR =        1    unscreen: 0-lin 1-nonlin 2-no                           
   RPACOR =    1.200    partial core radius                                     
   POMASS =   16.000; ZVAL   =    6.000    mass and valenz                      
   RCORE  =    1.520    outmost cutoff radius                                   
   RWIGS  =    1.550; RWIGS  =    0.820    wigner-seitz radius (au A)           
   ENMAX  =  400.000; ENMIN  =  300.000 eV                                      
   ICORE  =        2    local potential                                         
   LCOR   =        T    correct aug charges                                     
   LPAW   =        T    paw PP                                                  
   EAUG   =  605.392                                                            
   DEXC   =    0.000                                                            
   RMAX   =    1.553    core radius for proj-oper                               
   RAUG   =    1.300    factor for augmentation sphere                          
   RDEP   =    1.550    radius for radial grids                                 
   RDEPT  =    1.329    core radius for aug-charge                              
                                                                                
   Atomic configuration                                                         
    4 entries                                                                   
     n  l   j            E        occ.                                          
     1  0  0.50      -514.6923   2.0000                                         
     2  0  0.50       -23.9615   2.0000                                         
     2  1  0.50        -9.0305   4.0000                                         
     3  2  1.50        -9.5241   0.0000                                         
   Description                                                                  
     l       E           TYP  RCUT    TYP  RCUT                                 
     0    -23.9615318     23  1.200                                             
     0     -9.5240782     23  1.200                                             
     1     -9.0304911     23  1.520                                             
     1      8.1634956     23  1.520                                             
     2     -9.5240782      7  1.500                                             
  local pseudopotential read in
  partial core-charges read in
  partial kinetic energy density read in
  kinetic energy density of atom read in
  atomic valenz-charges read in
  non local Contribution for L=           0  read in
    real space projection operators read in
  non local Contribution for L=           0  read in
    real space projection operators read in
  non local Contribution for L=           1  read in
    real space projection operators read in
  non local Contribution for L=           1  read in
    real space projection operators read in
    PAW grid and wavefunctions read in
 
   number of l-projection  operators is LMAX  =           4
   number of lm-projection operators is LMMAX =           8
 
 Optimization of the real space projectors (new method)

 maximal supplied QI-value         = 25.13
 optimisation between [QCUT,QGAM] = [ 12.32, 24.88] = [ 42.47,173.37] Ry 
 Optimized for a Real-space Cutoff    1.06 Angstroem

   l    n(q)    QCUT    max X(q) W(low)/X(q) W(high)/X(q)  e(spline) 
   0      8    12.315   115.676    0.34E-03    0.18E-03    0.23E-06
   0      8    12.315    87.132    0.34E-03    0.18E-03    0.22E-06
   1      7    12.315     4.429    0.45E-03    0.12E-03    0.18E-06
   1      7    12.315     2.733    0.35E-03    0.97E-04    0.15E-06
 Optimization of the real space projectors (new method)

 maximal supplied QI-value         = 16.25
 optimisation between [QCUT,QGAM] = [ 12.51, 25.03] = [ 43.85,175.40] Ry 
 Optimized for a Real-space Cutoff    1.35 Angstroem

   l    n(q)    QCUT    max X(q) W(low)/X(q) W(high)/X(q)  e(spline) 
   2      9    12.514    80.901    0.12E-03    0.34E-03    0.58E-06
   2      9    12.514    75.754    0.12E-03    0.34E-03    0.59E-06
   0     10    12.514    58.752    0.17E-03    0.81E-04    0.93E-07
   0     10    12.514    30.679    0.15E-03    0.74E-04    0.88E-07
   1     10    12.514    17.977    0.11E-03    0.79E-04    0.24E-06
   1     10    12.514    13.559    0.97E-04    0.61E-04    0.20E-06
 Optimization of the real space projectors (new method)

 maximal supplied QI-value         = 34.20
 optimisation between [QCUT,QGAM] = [ 12.31, 24.97] = [ 42.46,174.58] Ry 
 Optimized for a Real-space Cutoff    1.00 Angstroem

   l    n(q)    QCUT    max X(q) W(low)/X(q) W(high)/X(q)  e(spline) 
   0      7    12.313    19.460    0.14E-03    0.42E-03    0.16E-06
   0      7    12.313    12.209    0.12E-03    0.40E-03    0.16E-06
   1      7    12.313     4.655    0.33E-03    0.59E-03    0.89E-07
 Optimization of the real space projectors (new method)

 maximal supplied QI-value         = 25.13
 optimisation between [QCUT,QGAM] = [ 12.32, 24.88] = [ 42.47,173.37] Ry 
 Optimized for a Real-space Cutoff    1.20 Angstroem

   l    n(q)    QCUT    max X(q) W(low)/X(q) W(high)/X(q)  e(spline) 
   0      9    12.315    79.467    0.14E-03    0.22E-04    0.37E-06
   0      9    12.315    66.151    0.14E-03    0.23E-04    0.36E-06
   1      8    12.315    22.077    0.30E-03    0.54E-03    0.45E-06
   1      8    12.315    15.894    0.30E-03    0.55E-03    0.45E-06
 Optimization of the real space projectors (new method)

 maximal supplied QI-value         = 24.76
 optimisation between [QCUT,QGAM] = [ 12.38, 25.00] = [ 42.90,175.06] Ry 
 Optimized for a Real-space Cutoff    1.13 Angstroem

   l    n(q)    QCUT    max X(q) W(low)/X(q) W(high)/X(q)  e(spline) 
   0      8    12.378    20.381    0.16E-03    0.54E-05    0.27E-06
   0      8    12.378    15.268    0.17E-03    0.61E-05    0.29E-06
   1      8    12.378     5.964    0.38E-03    0.23E-03    0.28E-06
   1      8    12.378     5.382    0.33E-03    0.20E-03    0.25E-06
  PAW_PBE C 08Apr2002                   :
 energy of atom  1       EATOM= -147.1560
 kinetic energy error for atom=    0.0057 (will be added to EATOM!!)
  PAW_PBE Fe 06Sep2000                  :
 energy of atom  2       EATOM= -594.3153
 kinetic energy error for atom=    0.0017 (will be added to EATOM!!)
  PAW_PBE H 15Jun2001                   :
 energy of atom  3       EATOM=  -12.4884
 kinetic energy error for atom=    0.0004 (will be added to EATOM!!)
  PAW_PBE N 08Apr2002                   :
 energy of atom  4       EATOM= -264.5486
 kinetic energy error for atom=    0.0103 (will be added to EATOM!!)
  PAW_PBE O 08Apr2002                   :
 energy of atom  5       EATOM= -432.3788
 kinetic energy error for atom=    0.0168 (will be added to EATOM!!)
 
 
 POSCAR: FeH_7                                   
  positions in direct lattice
  velocities in cartesian coordinates
 exchange correlation table for  LEXCH =        8
   RHO(1)=    0.500       N(1)  =     2000
   RHO(2)=  100.500       N(2)  =     4000
 


--------------------------------------------------------------------------------------------------------


 ion  position               nearest neighbor table
   1  0.795  0.952  0.070- 107 1.09 117 1.35  65 1.40
   2  0.898  0.959  0.402- 112 1.08 118 1.34  65 1.40
   3  0.792  0.803  0.910- 116 1.09 119 1.35  66 1.40
   4  0.705  0.453  0.567- 110 1.09 120 1.35  67 1.40
   5  0.605  0.296  0.073- 111 1.08 121 1.34  68 1.40
   6  0.101  0.796  0.079- 115 1.08 122 1.34  69 1.40
   7  0.602  0.459  0.899- 101 1.08 123 1.34  67 1.40
   8  0.708  0.303  0.406- 113 1.09 124 1.35  68 1.40
   9  0.395  0.458  0.400- 114 1.08 125 1.34  70 1.40
  10  0.204  0.802  0.412- 104 1.09 126 1.35  69 1.40
  11  0.105  0.958  0.904- 105 1.08 127 1.34  71 1.40
  12  0.398  0.296  0.575- 102 1.08 128 1.34  72 1.40
  13  0.894  0.796  0.578- 108 1.08 129 1.34  66 1.40
  14  0.207  0.952  0.571- 109 1.09 130 1.35  71 1.40
  15  0.296  0.302  0.908- 106 1.09 131 1.35  72 1.40
  16  0.292  0.452  0.068- 103 1.09 132 1.35  70 1.40
  17  0.714  0.033  0.399- 141 1.23 133 1.42  33 1.48
  18  0.847  0.050  0.034- 142 1.23 133 1.42  34 1.48
  19  0.842  0.705  0.945- 143 1.23 134 1.42  35 1.48
  20  0.653  0.550  0.533- 144 1.23 135 1.42  36 1.48
  21  0.658  0.205  0.442- 145 1.23 136 1.42  37 1.48
  22  0.285  0.722  0.081- 146 1.23 137 1.42  38 1.48
  23  0.786  0.533  0.898- 147 1.23 135 1.42  39 1.48
  24  0.791  0.223  0.077- 148 1.23 136 1.42  40 1.48
  25  0.209  0.532  0.398- 149 1.23 138 1.42  41 1.48
  26  0.152  0.704  0.446- 150 1.23 137 1.42  42 1.48
  27  0.158  0.049  0.535- 151 1.23 139 1.42  43 1.48
  28  0.348  0.205  0.943- 152 1.23 140 1.42  44 1.48
  29  0.708  0.723  0.580- 153 1.23 134 1.42  45 1.48
  30  0.291  0.032  0.900- 154 1.23 139 1.42  46 1.48
  31  0.214  0.222  0.578- 155 1.23 140 1.42  47 1.48
  32  0.342  0.549  0.033- 156 1.23 138 1.42  48 1.48
  33  0.698  0.077  0.403-  49 1.39  73 1.42  17 1.48
  34  0.832  0.094  0.049-  50 1.39  73 1.42  18 1.48
  35  0.826  0.661  0.930-  51 1.39  74 1.42  19 1.48
  36  0.668  0.594  0.548-  52 1.39  75 1.42  20 1.48
  37  0.674  0.161  0.428-  53 1.39  76 1.42  21 1.48
  38  0.301  0.677  0.076-  54 1.39  77 1.42  22 1.48
  39  0.802  0.577  0.903-  55 1.39  75 1.42  23 1.48
  40  0.807  0.178  0.073-  56 1.39  76 1.42  24 1.48
  41  0.193  0.576  0.403-  57 1.39  78 1.42  25 1.48
  42  0.168  0.660  0.430-  58 1.39  77 1.42  26 1.48
  43  0.174  0.093  0.549-  59 1.39  79 1.42  27 1.48
  44  0.332  0.161  0.928-  60 1.39  80 1.42  28 1.48
  45  0.693  0.678  0.575-  61 1.39  74 1.42  29 1.48
  46  0.307  0.076  0.904-  62 1.39  79 1.42  30 1.48
  47  0.199  0.177  0.574-  63 1.39  80 1.42  31 1.48
  48  0.326  0.593  0.049-  64 1.39  78 1.42  32 1.48
  49  0.626  0.090  0.581-  88 1.09  33 1.39  53 1.40
  50  0.892  0.123  0.884-  99 1.09  34 1.39  56 1.40
  51  0.886  0.632  0.094-  93 1.09  35 1.39  55 1.40
  52  0.608  0.623  0.384-  90 1.09  36 1.39  61 1.40
  53  0.614  0.132  0.593-  98 1.09  37 1.39  49 1.40
  54  0.374  0.665  0.898-  96 1.09  38 1.39  64 1.40
  55  0.874  0.590  0.081-  86 1.09  39 1.39  51 1.40
  56  0.880  0.165  0.896-  87 1.09  40 1.39  50 1.40
  57  0.120  0.589  0.581-  95 1.09  41 1.39  58 1.40
  58  0.108  0.631  0.594-  91 1.09  42 1.39  57 1.40
  59  0.114  0.122  0.384-  92 1.09  43 1.39  63 1.40
  60  0.392  0.131  0.093-  85 1.09  44 1.39  62 1.40
  61  0.620  0.665  0.397-  89 1.09  45 1.39  52 1.40
  62  0.380  0.089  0.081- 100 1.09  46 1.39  60 1.40
  63  0.126  0.164  0.396-  94 1.09  47 1.39  59 1.40
  64  0.386  0.623  0.885-  97 1.09  48 1.39  54 1.40
  65  0.820  0.980  0.227-   2 1.40   1 1.40 133 1.42
  66  0.816  0.775  0.753-  13 1.40   3 1.40 134 1.42
  67  0.680  0.480  0.724-   7 1.40   4 1.40 135 1.42
  68  0.684  0.275  0.249-   5 1.40   8 1.40 136 1.42
  69  0.178  0.774  0.255-   6 1.40  10 1.40 137 1.42
  70  0.317  0.479  0.225-   9 1.40  16 1.40 138 1.42
  71  0.183  0.979  0.728-  11 1.40  14 1.40 139 1.42
  72  0.321  0.275  0.750-  12 1.40  15 1.40 140 1.42
  73  0.759  0.106  0.232-  33 1.42  34 1.42  76 1.43
  74  0.753  0.649  0.746-  45 1.42  35 1.42  75 1.43
  75  0.741  0.606  0.732-  39 1.42  36 1.42  74 1.43
  76  0.747  0.149  0.244-  40 1.42  37 1.42  73 1.43
  77  0.241  0.648  0.247-  38 1.42  42 1.42  78 1.43
  78  0.253  0.605  0.233-  41 1.42  48 1.42  77 1.43
  79  0.247  0.105  0.732-  46 1.42  43 1.42  80 1.43
  80  0.259  0.148  0.745-  47 1.42  44 1.42  79 1.43
  81  0.957  0.877  0.990- 117 2.01 119 2.01 122 2.01 127 2.01  82 3.01  82 3.01
  82  0.042  0.877  0.491- 126 2.01 130 2.01 118 2.01 129 2.01  81 3.01  81 3.01
  83  0.543  0.377  0.487- 120 2.01 124 2.01 125 2.01 128 2.01  84 3.01  84 3.01
  84  0.457  0.377  0.987- 131 2.01 132 2.01 123 2.01 121 2.01  83 3.01  83 3.01
  85  0.448  0.142  0.232-  60 1.09
  86  0.919  0.567  0.210-  55 1.09
  87  0.925  0.188  0.766-  56 1.09
  88  0.581  0.067  0.711-  49 1.09
  89  0.575  0.688  0.268-  61 1.09
  90  0.553  0.613  0.245-  52 1.09
  91  0.052  0.641  0.734-  58 1.09
  92  0.059  0.112  0.245-  59 1.09
  93  0.941  0.642  0.234-  51 1.09
  94  0.081  0.187  0.266-  63 1.09
  95  0.075  0.566  0.710-  57 1.09
  96  0.419  0.688  0.769-  54 1.09
  97  0.441  0.612  0.745-  64 1.09
  98  0.559  0.143  0.732-  53 1.09
  99  0.947  0.113  0.745-  50 1.09
 100  0.425  0.066  0.211-  62 1.09
 101  0.560  0.469  0.051-   7 1.08
 102  0.440  0.285  0.423-  12 1.08
 103  0.238  0.456  0.905-  16 1.09
 104  0.258  0.797  0.575-  10 1.09
 105  0.064  0.969  0.055-  11 1.08
 106  0.241  0.297  0.070-  15 1.09
 107  0.740  0.957  0.907-   1 1.09
 108  0.936  0.785  0.426-  13 1.08
 109  0.262  0.956  0.409-  14 1.09
 110  0.759  0.457  0.404-   4 1.09
 111  0.564  0.285  0.922-   5 1.08
 112  0.939  0.969  0.554-   2 1.08
 113  0.762  0.298  0.569-   8 1.09
 114  0.436  0.469  0.552-   9 1.08
 115  0.060  0.785  0.927-   6 1.08
 116  0.738  0.798  0.073-   3 1.09
 117  0.855  0.917  0.149-   1 1.35 118 1.37  81 2.01
 118  0.918  0.921  0.353-   2 1.34 117 1.37  82 2.01
 119  0.853  0.838  0.832-   3 1.35 129 1.37  81 2.01
 120  0.645  0.417  0.645-   4 1.35 123 1.37  83 2.01
 121  0.583  0.334  0.124-   5 1.34 124 1.37  84 2.01
 122  0.081  0.834  0.129-   6 1.34 126 1.37  81 2.01
 123  0.581  0.421  0.849-   7 1.34 120 1.37  84 2.01
 124  0.646  0.338  0.328-   8 1.35 121 1.37  83 2.01
 125  0.417  0.421  0.350-   9 1.34 132 1.37  83 2.01
 126  0.144  0.838  0.333-  10 1.35 122 1.37  82 2.01
 127  0.083  0.920  0.854-  11 1.34 130 1.37  81 2.01
 128  0.419  0.334  0.624-  12 1.34 131 1.37  83 2.01
 129  0.916  0.834  0.628-  13 1.34 119 1.37  82 2.01
 130  0.146  0.916  0.650-  14 1.35 127 1.37  82 2.01
 131  0.356  0.338  0.829-  15 1.35 128 1.37  84 2.01
 132  0.354  0.416  0.146-  16 1.35 125 1.37  84 2.01
 133  0.787  0.022  0.213-  17 1.42  18 1.42  65 1.42
 134  0.782  0.733  0.767-  19 1.42  29 1.42  66 1.42
 135  0.713  0.522  0.711-  20 1.42  23 1.42  67 1.42
 136  0.717  0.233  0.263-  24 1.42  21 1.42  68 1.42
 137  0.212  0.732  0.268-  22 1.42  26 1.42  69 1.42
 138  0.283  0.521  0.211-  32 1.42  25 1.42  70 1.42
 139  0.217  0.021  0.714-  27 1.42  30 1.42  71 1.42
 140  0.288  0.233  0.764-  31 1.42  28 1.42  72 1.42
 141  0.667  0.006  0.549-  17 1.23
 142  0.910  0.038  0.878-  18 1.23
 143  0.904  0.717  0.102-  19 1.23
 144  0.590  0.538  0.377-  20 1.23
 145  0.595  0.218  0.598-  21 1.23
 146  0.332  0.748  0.932-  22 1.23
 147  0.833  0.506  0.047-  23 1.23
 148  0.838  0.249  0.926-  24 1.23
 149  0.162  0.505  0.548-  25 1.23
 150  0.089  0.716  0.602-  26 1.23
 151  0.095  0.037  0.378-  27 1.23
 152  0.411  0.217  0.099-  28 1.23
 153  0.662  0.749  0.430-  29 1.23
 154  0.337  0.005  0.051-  30 1.23
 155  0.167  0.248  0.428-  31 1.23
 156  0.405  0.537  0.877-  32 1.23
 

IMPORTANT INFORMATION: All symmetrisations will be switched off!
NOSYMM: (Re-)initialisation of all symmetry stuff for point group C_1.

 
 

Automatic generation of k-mesh.
 generate k-points for:    2    1    4
Space group operators:
 irot       det(A)        alpha          n_x          n_y          n_z        tau_x        tau_y        tau_z
    1     1.000000     0.000000     1.000000     0.000000     0.000000     0.000000     0.000000     0.000000
 
 Subroutine IBZKPT returns following result:
 ===========================================
 
 Found      6 irreducible k-points:
 
 Following reciprocal coordinates:
            Coordinates               Weight
  0.000000  0.000000  0.000000      1.000000
  0.500000  0.000000 -0.000000      1.000000
  0.000000 -0.000000  0.250000      2.000000
  0.500000  0.000000  0.250000      2.000000
  0.000000 -0.000000  0.500000      1.000000
  0.500000 -0.000000  0.500000      1.000000
 
 Following cartesian coordinates:
            Coordinates               Weight
  0.000000  0.000000  0.000000      1.000000
  0.047460  0.000003 -0.000003      1.000000
  0.000005 -0.003124  0.043937      2.000000
  0.047465 -0.003121  0.043934      2.000000
  0.000010 -0.006248  0.087875      1.000000
  0.047470 -0.006245  0.087872      1.000000
 


--------------------------------------------------------------------------------------------------------




 Dimension of arrays:
   k-points           NKPTS =      6   k-points in BZ     NKDIM =      6   number of bands    NBANDS=    384
   number of dos      NEDOS =    301   number of ions     NIONS =    156
   non local maximal  LDIM  =      6   non local SUM 2l+1 LMDIM =     18
   total plane-waves  NPLWV = 460800
   max r-space proj   IRMAX =   2434   max aug-charges    IRDMAX=   8514
   dimension x,y,z NGX =    64 NGY =  200 NGZ =   36
   dimension x,y,z NGXF=   128 NGYF=  400 NGZF=   72
   support grid    NGXF=   128 NGYF=  400 NGZF=   72
   ions per type =              80   4  32  24  16
   NGX,Y,Z   is equivalent  to a cutoff of  10.10, 10.07, 10.41 a.u.
   NGXF,Y,Z  is equivalent  to a cutoff of  20.20, 20.14, 20.82 a.u.

 SYSTEM =  flex_MOF                                
 POSCAR =  FeH_7                                   

 Startparameter for this run:
   NWRITE =      2    write-flag & timer
   PREC   = normal    normal or accurate (medium, high low for compatibility)
   ISTART =      0    job   : 0-new  1-cont  2-samecut
   ICHARG =      2    charge: 1-file 2-atom 10-const
   ISPIN  =      2    spin polarized calculation?
   LNONCOLLINEAR =      F non collinear calculations
   LSORBIT =      F    spin-orbit coupling
   INIWAV =      1    electr: 0-lowe 1-rand  2-diag
   LASPH  =      F    aspherical Exc in radial PAW
   METAGGA=      F    non-selfconsistent MetaGGA calc.

 Electronic Relaxation 1
   ENCUT  =  600.0 eV  44.10 Ry    6.64 a.u.  21.04 65.94 11.48*2*pi/ulx,y,z
   ENINI  =  600.0     initial cutoff
   ENAUG  =  644.9 eV  augmentation charge cutoff
   NELM   =     80;   NELMIN=  3; NELMDL= -8     # of ELM steps 
   EDIFF  = 0.1E-05   stopping-criterion for ELM
   LREAL  =      T    real-space projection
   NLSPLINE    = F    spline interpolate recip. space projectors
   LCOMPAT=      F    compatible to vasp.4.4
   GGA_COMPAT  = T    GGA compatible to vasp.4.4-vasp.4.6
   LMAXPAW     = -100 max onsite density
   LMAXMIX     =    2 max onsite mixed and CHGCAR
   VOSKOWN=      0    Vosko Wilk Nusair interpolation
   ROPT   =   -0.00050  -0.00050  -0.00050  -0.00050
   ROPT   =   -0.00050
 Ionic relaxation
   EDIFFG = -.1E-01   stopping-criterion for IOM
   NSW    =   1000    number of steps for IOM
   NBLOCK =      1;   KBLOCK =   1000    inner block; outer block 
   IBRION =      2    ionic relax: 0-MD 1-quasi-New 2-CG
   NFREE  =      1    steps in history (QN), initial steepest desc. (CG)
   ISIF   =      4    stress and relaxation
   IWAVPR =     11    prediction:  0-non 1-charg 2-wave 3-comb
   ISYM   =      0    0-nonsym 1-usesym 2-fastsym
   LCORR  =      T    Harris-Foulkes like correction to forces

   POTIM  = 0.5000    time-step for ionic-motion
   TEIN   =    0.0    initial temperature
   TEBEG  =    0.0;   TEEND  =   0.0 temperature during run
   SMASS  =  -3.00    Nose mass-parameter (am)
   estimated Nose-frequenzy (Omega)   =  0.10E-29 period in steps =****** mass=  -0.254E-26a.u.
   SCALEE = 1.0000    scale energy and forces
   NPACO  =    256;   APACO  = 16.0  distance and # of slots for P.C.
   PSTRESS=    0.0 pullay stress

  Mass of Ions in am
   POMASS =  12.01 55.85  1.00 14.00 16.00
  Ionic Valenz
   ZVAL   =   4.00  8.00  1.00  5.00  6.00
  Atomic Wigner-Seitz radii
   RWIGS  =  -1.00 -1.00 -1.00 -1.00 -1.00
  virtual crystal weights 
   VCA    =   1.00  1.00  1.00  1.00  1.00
   NELECT =     600.0000    total number of electrons
   NUPDOWN=      -1.0000    fix difference up-down

 DOS related values:
   EMIN   =  10.00;   EMAX   =-10.00  energy-range for DOS
   EFERMI =   0.00
   ISMEAR =     0;   SIGMA  =   0.05  broadening in eV -4-tet -1-fermi 0-gaus

 Electronic relaxation 2 (details)
   IALGO  =     38    algorithm
   LDIAG  =      T    sub-space diagonalisation (order eigenvalues)
   LSUBROT=      F    optimize rotation matrix (better conditioning)
   TURBO    =      0    0=normal 1=particle mesh
   IRESTART =      0    0=no restart 2=restart with 2 vectors
   NREBOOT  =      0    no. of reboots
   NMIN     =      0    reboot dimension
   EREF     =   0.00    reference energy to select bands
   IMIX   =      4    mixing-type and parameters
     AMIX     =   0.40;   BMIX     =  1.00
     AMIX_MAG =   1.60;   BMIX_MAG =  1.00
     AMIN     =   0.10
     WC   =   100.;   INIMIX=   1;  MIXPRE=   1;  MAXMIX= -45

 Intra band minimization:
   WEIMIN = 0.0010     energy-eigenvalue tresh-hold
   EBREAK =  0.65E-09  absolut break condition
   DEPER  =   0.30     relativ break condition  

   TIME   =   0.40     timestep for ELM

  volume/ion in A,a.u.               =      12.65        85.39
  Fermi-wavevector in a.u.,A,eV,Ry     =   1.100719  2.080057 16.484576  1.211582
  Thomas-Fermi vector in A             =   2.237135
 
 Write flags
   LWAVE        =      T    write WAVECAR
   LDOWNSAMPLE  =      F    k-point downsampling of WAVECAR
   LCHARG       =      T    write CHGCAR
   LVTOT        =      F    write LOCPOT, total local potential
   LVHAR        =      F    write LOCPOT, Hartree potential only
   LELF         =      F    write electronic localiz. function (ELF)
   LORBIT       =      0    0 simple, 1 ext, 2 COOP (PROOUT), +10 PAW based schemes


 Dipole corrections
   LMONO  =      F    monopole corrections only (constant potential shift)
   LDIPOL =      F    correct potential (dipole corrections)
   IDIPOL =      0    1-x, 2-y, 3-z, 4-all directions 
   EPSILON=  1.0000000 bulk dielectric constant

 Exchange correlation treatment:
   GGA     =    PE    GGA type
   LEXCH   =     8    internal setting for exchange type
   VOSKOWN=      0    Vosko Wilk Nusair interpolation
   LHFCALC =     F    Hartree Fock is set to
   LHFONE  =     F    Hartree Fock one center treatment
   AEXX    =    0.0000 exact exchange contribution

 Linear response parameters
   LEPSILON=     F    determine dielectric tensor
   LRPA    =     F    only Hartree local field effects (RPA)
   LNABLA  =     F    use nabla operator in PAW spheres
   LVEL    =     F    velocity operator in full k-point grid
   LINTERFAST=   F  fast interpolation
   KINTER  =     0    interpolate to denser k-point grid
   CSHIFT  =0.1000    complex shift for real part using Kramers Kronig
   OMEGAMAX=  -1.0    maximum frequency
   DEG_THRESHOLD= 0.2000000E-02 threshold for treating states as degnerate
   RTIME   =   -0.100 relaxation time in fs
  (WPLASMAI=    0.000 imaginary part of plasma frequency in eV, 0.658/RTIME)
   DFIELD  = 0.0000000 0.0000000 0.0000000 field for delta impulse in time
 
 Orbital magnetization related:
   ORBITALMAG=     F  switch on orbital magnetization
   LCHIMAG   =     F  perturbation theory with respect to B field
   DQ        =  0.001000  dq finite difference perturbation B field
   LLRAUG    =     F  two centre corrections for induced B field



--------------------------------------------------------------------------------------------------------


 conjugate gradient relaxation of ions
 charge density and potential will be updated during run
 spin polarized calculation
 Variant of blocked Davidson
 Davidson routine will perform the subspace rotation
 perform sub-space diagonalisation
    after iterative eigenvector-optimisation
 modified Broyden-mixing scheme, WC =      100.0
 initial mixing is a Kerker type mixing with AMIX =  0.4000 and BMIX =      1.0000
 Hartree-type preconditioning will be used
 using additional bands           84
 real space projection scheme for non local part
 use partial core corrections
 calculate Harris-corrections to forces 
   (improved forces if not selfconsistent)
 use gradient corrections 
 use of overlap-Matrix (Vanderbilt PP)
 Gauss-broadening in eV      SIGMA  =   0.05


--------------------------------------------------------------------------------------------------------


  energy-cutoff  :      600.00
  volume of cell :     1974.00
      direct lattice vectors                 reciprocal lattice vectors
    10.535193220  0.000736710 -0.001200631     0.094919948  0.000005479 -0.000006405
    -0.001742930 32.930533412  2.341351593    -0.000002444  0.030558454 -0.002693397
     0.000357227  0.504666405  5.725788508     0.000020903 -0.012495760  0.175749800

  length of vectors
    10.535193314 33.013663249  5.747985938     0.094919948  0.030676921  0.176193463


 
 k-points in units of 2pi/SCALE and weight: read from INCAR                         
   0.00000000  0.00000000  0.00000000       0.125
   0.04745997  0.00000274 -0.00000320       0.125
   0.00000523 -0.00312394  0.04393745       0.250
   0.04746520 -0.00312120  0.04393425       0.250
   0.00001045 -0.00624788  0.08787490       0.125
   0.04747043 -0.00624514  0.08787170       0.125
 
 k-points in reciprocal lattice and weights: read from INCAR                         
   0.00000000  0.00000000  0.00000000       0.125
   0.50000000  0.00000000 -0.00000000       0.125
   0.00000000 -0.00000000  0.25000000       0.250
   0.50000000  0.00000000  0.25000000       0.250
   0.00000000 -0.00000000  0.50000000       0.125
   0.50000000 -0.00000000  0.50000000       0.125
 
 position of ions in fractional coordinates (direct lattice) 
   0.79478682  0.95246810  0.06976072
   0.89758370  0.95867318  0.40245610
   0.79211960  0.80259789  0.91040321
   0.70490784  0.45260817  0.56663269
   0.60536862  0.29631608  0.07346131
   0.10127629  0.79568454  0.07876083
   0.60198127  0.45872660  0.89931872
   0.70789168  0.30284229  0.40592671
   0.39504724  0.45829869  0.40007517
   0.20382401  0.80178673  0.41184841
   0.10482902  0.95822084  0.90357769
   0.39832594  0.29581857  0.57466506
   0.89438573  0.79617418  0.57754590
   0.20730490  0.95166110  0.57112012
   0.29564396  0.30195269  0.90754627
   0.29231299  0.45183032  0.06771260
   0.71354447  0.03280321  0.39916119
   0.84737756  0.04988003  0.03407508
   0.84186472  0.70513281  0.94530968
   0.65252778  0.55002476  0.53282920
   0.65795444  0.20541674  0.44229321
   0.28547427  0.72171294  0.08123851
   0.78635618  0.53268827  0.89775147
   0.79125374  0.22254339  0.07666712
   0.20863066  0.53184580  0.39834030
   0.15163237  0.70429232  0.44601827
   0.15787379  0.04911526  0.53452726
   0.34813525  0.20454022  0.94293839
   0.70842238  0.72251434  0.57998020
   0.29107879  0.03191444  0.90028954
   0.21427106  0.22168490  0.57793975
   0.34214196  0.54933522  0.03317710
   0.69796301  0.07718204  0.40324521
   0.83167713  0.09389212  0.04860124
   0.82603178  0.66117280  0.92971149
   0.66827908  0.59399273  0.54835763
   0.67382696  0.16141262  0.42783785
   0.30131646  0.67739237  0.07594795
   0.80197768  0.57702601  0.90288839
   0.80725013  0.17815281  0.07296632
   0.19252402  0.57618065  0.40345371
   0.16764806  0.66032908  0.43040841
   0.17396327  0.09310826  0.54898099
   0.33221230  0.16053946  0.92834795
   0.69252566  0.67816194  0.57498593
   0.30733142  0.07629507  0.90392385
   0.19857833  0.17732126  0.57365150
   0.32604616  0.59328107  0.04890043
   0.62596692  0.09024680  0.58076966
   0.89170441  0.12320165  0.88407136
   0.88587088  0.63177961  0.09392788
   0.60825767  0.62339317  0.38439973
   0.61403305  0.13211625  0.59273846
   0.37353662  0.66454753  0.89804275
   0.87395967  0.58994694  0.08086005
   0.87952993  0.16507880  0.89582963
   0.12018733  0.58903944  0.58118857
   0.10778623  0.63086363  0.59425967
   0.11422231  0.12243841  0.38416118
   0.39212751  0.13119097  0.09285740
   0.62033823  0.66523376  0.39727694
   0.37971488  0.08932131  0.08110686
   0.12642311  0.16430211  0.39615715
   0.38581981  0.62273086  0.88487095
   0.82013826  0.97982330  0.22669959
   0.81631080  0.77523926  0.75293920
   0.67959533  0.47989657  0.72396447
   0.68363646  0.27543735  0.24876367
   0.17848939  0.77447338  0.25467678
   0.31667376  0.47919701  0.22505246
   0.18310236  0.97907986  0.72822754
   0.32100006  0.27462576  0.75046925
   0.75870530  0.10632051  0.23193981
   0.75322292  0.64890236  0.74571335
   0.74122840  0.60627286  0.73215958
   0.74664376  0.14899302  0.24434114
   0.24071864  0.64810430  0.24658045
   0.25305084  0.60549214  0.23283705
   0.24689293  0.10548795  0.73249819
   0.25918304  0.14814993  0.74497000
   0.95671971  0.87726119  0.99045245
   0.04235079  0.87712782  0.49089814
   0.54304789  0.37737595  0.48657215
   0.45710339  0.37723894  0.98698993
   0.44759544  0.14156268  0.23203455
   0.91937873  0.56676844  0.21033379
   0.92495328  0.18817233  0.76586006
   0.58058527  0.06715639  0.71078551
   0.57489972  0.68841129  0.26781039
   0.55289777  0.61309260  0.24484744
   0.05231482  0.64109059  0.73387385
   0.05894220  0.11205574  0.24481082
   0.94098230  0.64207997  0.23375112
   0.08104557  0.18742747  0.26631225
   0.07484903  0.56581144  0.71049848
   0.41884601  0.68777687  0.76873843
   0.44114743  0.61248409  0.74513329
   0.55890689  0.14253397  0.73216517
   0.94709116  0.11279713  0.74489819
   0.42502740  0.06619475  0.21103949
   0.56026121  0.46946940  0.05088860
   0.43999287  0.28507809  0.42303352
   0.23771428  0.45636592  0.90524304
   0.25808938  0.79707116  0.57470373
   0.06363740  0.96913127  0.05509754
   0.24134107  0.29724824  0.07035167
   0.74040070  0.95713526  0.90704906
   0.93558493  0.78530711  0.42589178
   0.26176738  0.95615691  0.40851484
   0.75935149  0.45732256  0.40399188
   0.56410231  0.28540702  0.92199266
   0.93926526  0.96944264  0.55398930
   0.76237758  0.29832602  0.56851453
   0.43641589  0.46918480  0.55151833
   0.05971463  0.78495614  0.92699524
   0.73773983  0.79804082  0.07311872
   0.85493607  0.91668173  0.14861622
   0.91823535  0.92077415  0.35275045
   0.85345362  0.83818842  0.83208806
   0.64463411  0.41682304  0.64499180
   0.58323248  0.33410710  0.12364578
   0.08075500  0.83358482  0.12857090
   0.58124832  0.42086681  0.84908989
   0.64636276  0.33839631  0.32764749
   0.41710220  0.42051975  0.34967469
   0.14391546  0.83761481  0.33292872
   0.08269738  0.92041920  0.85355654
   0.41888438  0.33371747  0.62446519
   0.91643081  0.83395931  0.62785234
   0.14577837  0.91611324  0.64953420
   0.35563596  0.33776705  0.82870075
   0.35386852  0.41626454  0.14573074
   0.78729426  0.02191379  0.21255053
   0.78243394  0.73323594  0.76673294
   0.71264171  0.52195164  0.71068669
   0.71745711  0.23341452  0.26325597
   0.21153839  0.73241138  0.26809029
   0.28266503  0.52118652  0.21147277
   0.21711096  0.02108553  0.71376937
   0.28815188  0.23253841  0.76448684
   0.66684131  0.00630868  0.54922553
   0.91006719  0.03765326  0.87836236
   0.90421649  0.71720453  0.10195527
   0.58973308  0.53790872  0.37687666
   0.59549830  0.21760509  0.59841524
   0.33218481  0.74832763  0.93187633
   0.83298158  0.50609544  0.04734497
   0.83761461  0.24904892  0.92627780
   0.16214456  0.50520571  0.54777684
   0.08886421  0.71636365  0.60213813
   0.09541593  0.03694496  0.37832907
   0.41087595  0.21673255  0.09872671
   0.66183334  0.74912465  0.43046407
   0.33737905  0.00538876  0.05064158
   0.16749560  0.24820162  0.42809495
   0.40471985  0.53730654  0.87668753
 
 position of ions in cartesian coordinates  (Angst):
   8.37159758 31.40107392  2.62854357
   9.45469054 31.77338648  4.54789184
   8.34405935 26.89001019  7.09098904
   7.42575383 15.19110828  4.30328749
   6.37718513  9.79536614  1.11367726
   1.06560660 26.24213879  2.31382350
   6.34151077 15.56041112  6.22262632
   7.45739276 10.17813736  3.03246084
   4.16124318 15.29421573  3.36330989
   2.14607496 26.61126107  4.23517682
   1.10304667 32.01080579  7.41710080
   4.19613042 10.03177085  3.98254761
   9.42134516 26.51056745  5.16995552
   2.18254251 31.62708550  5.49803738
   3.11446411 10.40168893  5.90304046
   3.07881050 14.91340118  1.44525069
   7.51741424  1.28219619  2.36145972
   8.92721157  1.66039691  0.31087601
   8.86831618 23.69808595  7.06259640
   6.87373796 18.38199052  4.33788523
   6.93147714  6.98817822  3.01264021
   3.00629769 23.80760083  2.15459555
   8.28380658 17.99535322  6.38660144
   8.33565056  7.36774689  0.95908204
   2.19717967 17.71514854  3.52579981
   1.59640814 23.41792400  4.20262020
   1.66333627  1.88726582  3.17539660
   3.66765248  7.21174422  5.87754840
   7.46231457 24.08600095  5.01165351
   3.06683732  1.50551993  5.22924093
   2.25720708  7.59202648  3.82794578
   3.60358608 18.10689719  1.47574114
   7.35318469  2.74566437  2.48876907
   8.76173293  3.11705757  0.49711636
   8.70158416 22.24257568  6.87037761
   7.03960981 19.83772752  4.52972329
   7.09876872  5.53181537  2.82682369
   3.17327358 22.34544229  2.02051384
   8.44830668 19.45802268  6.51980586
   8.50425166  5.90408558  0.83393890
   2.02741760 19.17768754  3.65890097
   1.76520758 21.96232501  4.01028876
   1.83277054  3.34328510  3.36113937
   3.49997254  5.75540097  5.69100447
   7.29491510 22.62292083  4.87923188
   3.23798587  2.96884388  5.35394137
   2.09195697  6.12893260  3.69954018
   3.43394267 19.56198066  1.66868161
   6.59473259  3.26543132  3.53591216
   9.39437932  4.50391423  5.34939343
   9.33175334 20.85289458  2.01596579
   6.40716284 20.72311150  3.65984386
   6.46893827  4.65024611  3.70248840
   3.93444297 22.33739184  6.69749379
   9.20633459 19.46871867  1.84321144
   9.26605002  5.88887610  5.51478253
   1.26537770 19.69077773  4.70676698
   1.13466149 21.07465810  4.87954936
   1.20327795  4.22591939  2.48615988
   4.13094364  4.36733944  0.83837520
   6.53436557 22.10745191  3.83152506
   4.00024295  2.98261006  0.67307742
   1.33174705  5.61057649  2.65284929
   4.06391693 20.95370826  6.52415258
   8.63868823 32.38111565  3.59116005
   8.59890982 25.90962681  6.12529822
   7.15909027 16.16911111  5.26805808
   7.20185103  9.19634528  2.06844307
   1.87916137 25.63247999  3.27132556
   3.33546439 15.89402275  2.41019127
   1.92757241 32.60926879  6.46182723
   3.38158705  9.42254575  4.93963827
   7.99300445  3.61880244  1.57606108
   7.93448437 21.74559219  5.78820118
   7.80818932 20.33493106  5.61079889
   7.86586393  5.03028057  1.74699429
   2.53497585 21.46703835  2.92901850
   2.66496729 20.05687058  2.75054188
   2.60114250  3.84362344  4.44081767
   2.73055133  5.25480840  4.61210053
  10.07805178 29.38923176  7.72394949
   0.44482035 29.13205783  4.86439268
   5.72063054 12.67314809  3.66892699
   4.81536765 12.92111682  6.53399579
   4.71534058  4.77916427  1.65949139
   9.68491984 18.77081282  2.53022715
   9.74450716  6.58380052  4.82461977
   6.11671491  2.57063298  4.22634714
   6.05557548 22.80532957  3.14454828
   5.82390371 20.31344008  2.83674616
   0.55029156 21.48185528  5.70296213
   0.62085965  3.81364655  1.66402610
   9.91239476 21.26269549  2.84061469
   0.85359917  6.30654503  1.96358392
   0.78781665 18.99109247  5.39283769
   4.41169953 23.03712431  6.01145829
   4.64677203 20.54579669  5.69998661
   5.88820523  5.06363074  4.52527401
   9.97785792  4.09109251  4.52809015
   4.47770577  2.28664609  1.36284240
   5.90166005 15.48597226  1.38989762
   4.63506416  9.60158850  3.08914022
   2.50389385 15.48539396  6.25145783
   2.71783750 26.53820211  5.15654596
   0.66876283 31.94186250  2.58447749
   2.54208182  9.82422515  1.09849166
   7.79892019 31.97727726  7.43367231
   9.85535142 26.07620440  4.27612299
   2.75624938 31.69311364  4.57745482
   7.99926186 15.26431644  3.38301329
   5.94275873  9.86431973  5.94669587
   9.89384927 32.20453486  5.44070390
   8.03147823 10.11150678  3.95276474
   4.59710504 15.72915997  4.25587989
   0.62806817 26.31689179  7.14556530
   7.77086686 26.31735393  2.28627074
   9.00537209 30.26244973  2.99619279
   9.67230801 30.50028172  4.17452805
   8.99013513 28.02254749  6.72582938
   6.79084886 14.05218573  4.66824194
   6.14392869 11.06515448  1.48953150
   0.84936258 27.51533775  2.68778799
   6.12313314 14.28830394  5.84640844
   6.80908382 11.30939980  2.66756893
   4.39364422 14.02471613  2.98624713
   1.51483625 27.75122643  3.86725740
   0.86993356 30.74071731  7.04220988
   4.41266933 11.30494941  4.35640263
   9.65354639 27.78025608  5.54644138
   1.53443864 30.49600319  5.86386363
   3.74640084 11.54132859  5.53536968
   3.72739980 13.78161951  1.80862020
   8.29433485  0.82947982  1.26738199
   8.24208865 24.53337151  6.10597438
   7.50716228 17.54733061  5.29045834
   7.55823654  7.81984976  2.05299206
   2.22741707 24.25414954  3.24960689
   2.97709786 17.26988142  2.43078986
   2.28752411  1.05473328  4.13600041
   3.03560354  8.04363710  4.92139817
   7.02548729  0.48541506  3.15871945
   9.58798188  1.68389246  5.11638400
   9.52488182 23.67004722  2.26191662
   6.21214902 17.90425251  3.41664144
   6.27352410  7.46829058  3.93517416
   3.49865975 25.11335929  7.08742606
   8.77475672 16.69049995  1.45503453
   8.82432854  8.66939211  5.88577618
   1.70753940 16.91325745  4.31912387
   0.93516817 23.89418139  5.12486805
   1.00529602  1.40761742  2.25261881
   4.32831507  7.18724519  1.07224203
   6.97139017 24.88680267  4.21791579
   3.55436214  0.20326047  0.30217490
   1.76431883  8.38958032  3.03210733
   4.26317855 18.13652399  6.27726500
 


--------------------------------------------------------------------------------------------------------


 k-point  1 :   0.0000 0.0000 0.0000  plane waves:   65881
 k-point  2 :   0.5000 0.0000-0.0000  plane waves:   66008
 k-point  3 :   0.0000-0.0000 0.2500  plane waves:   65880
 k-point  4 :   0.5000 0.0000 0.2500  plane waves:   65887
 k-point  5 :   0.0000-0.0000 0.5000  plane waves:   65742
 k-point  6 :   0.5000-0.0000 0.5000  plane waves:   65728

 maximum and minimum number of plane-waves per node :     16562    16413

 maximum number of plane-waves:     66008
 maximum index in each direction: 
   IXMAX=   21   IYMAX=   65   IZMAX=   11
   IXMIN=  -21   IYMIN=  -65   IZMIN=  -11


 real space projection operators:
  total allocation   :      11975.54 KBytes
  max/ min on nodes  :       3019.31       2970.43


 parallel 3D FFT for wavefunctions:
    minimum data exchange during FFTs selected (reduces bandwidth)
 parallel 3D FFT for charge:
    minimum data exchange during FFTs selected (reduces bandwidth)


 total amount of memory used by VASP MPI-rank0    97137. kBytes
=======================================================================

   base      :      30000. kBytes
   nonlr-proj:      10067. kBytes
   fftplans  :       4611. kBytes
   grid      :      12392. kBytes
   one-center:       1213. kBytes
   wavefun   :      38854. kBytes
 
     INWAV:  cpu time    0.0001: real time    0.0001
 Broyden mixing: mesh for mixing (old mesh)
   NGX = 43   NGY =131   NGZ = 23
  (NGX  =128   NGY  =400   NGZ  = 72)
  gives a total of 129559 points

 initial charge density was supplied:
 charge density of overlapping atoms calculated
 number of electron     600.0000000 magnetization      -0.0000000
 keeping initial charge density in first step


--------------------------------------------------------------------------------------------------------


 Maximum index for non-local projection operator          591
 Maximum index for augmentation-charges          396 (set IRDMAX)


--------------------------------------------------------------------------------------------------------


 First call to EWALD:  gamma=   0.141
 Maximum number of real-space cells 3x 1x 5
 Maximum number of reciprocal cells 2x 6x 2

    FEWALD:  cpu time    0.0136: real time    0.0136


--------------------------------------- Iteration      1(   1)  ---------------------------------------


    POTLOK:  cpu time    0.2112: real time    0.2618
    SETDIJ:  cpu time    0.0639: real time    0.0642
     EDDAV:  cpu time   25.3741: real time   25.4672
       DOS:  cpu time    0.0051: real time    0.0053
    --------------------------------------------
      LOOP:  cpu time   25.6543: real time   25.7987

 eigenvalue-minimisations  :  9216
 total energy-change (2. order) : 0.4638645E+04  (-0.3071263E+05)
 number of electron     600.0000000 magnetization      -0.0000000
 augmentation part      600.0000000 magnetization      -0.0000000

 Free energy of the ion-electron system (eV)
  ---------------------------------------------------
  alpha Z        PSCENC =       897.93049857
  Ewald energy   TEWEN  =     -2281.90108060
  -Hartree energ DENC   =    -23181.94648521
  -exchange      EXHF   =         0.00000000
  -V(xc)+E(xc)   XCENC  =      2067.57326893
  PAW double counting   =     21424.79691592   -21559.01982888
  entropy T*S    EENTRO =        -0.03228206
  eigenvalues    EBANDS =      -544.36055124
  atomic energy  EATOM  =     27815.60422923
  Solvation  Ediel_sol  =         0.00000000
  ---------------------------------------------------
  free energy    TOTEN  =      4638.64468465 eV

  energy without entropy =     4638.67696671  energy(sigma->0) =     4638.66082568


--------------------------------------------------------------------------------------------------------




--------------------------------------- Iteration      1(   2)  ---------------------------------------


     EDDAV:  cpu time   28.8525: real time   28.8605
       DOS:  cpu time    0.0044: real time    0.0044
    --------------------------------------------
      LOOP:  cpu time   28.8568: real time   28.8648

 eigenvalue-minimisations  : 11168
 total energy-change (2. order) :-0.5324213E+04  (-0.5127632E+04)
 number of electron     600.0000000 magnetization      -0.0000000
 augmentation part      600.0000000 magnetization      -0.0000000

 Free energy of the ion-electron system (eV)
  ---------------------------------------------------
  alpha Z        PSCENC =       897.93049857
  Ewald energy   TEWEN  =     -2281.90108060
  -Hartree energ DENC   =    -23181.94648521
  -exchange      EXHF   =         0.00000000
  -V(xc)+E(xc)   XCENC  =      2067.57326893
  PAW double counting   =     21424.79691592   -21559.01982888
  entropy T*S    EENTRO =        -0.01977504
  eigenvalues    EBANDS =     -5868.58634946
  atomic energy  EATOM  =     27815.60422923
  Solvation  Ediel_sol  =         0.00000000
  ---------------------------------------------------
  free energy    TOTEN  =      -685.56860655 eV

  energy without entropy =     -685.54883151  energy(sigma->0) =     -685.55871903


--------------------------------------------------------------------------------------------------------




--------------------------------------- Iteration      1(   3)  ---------------------------------------


     EDDAV:  cpu time   28.1574: real time   28.1604
       DOS:  cpu time    0.0042: real time    0.0042
    --------------------------------------------
      LOOP:  cpu time   28.1617: real time   28.1647

 eigenvalue-minimisations  : 11136
 total energy-change (2. order) :-0.5859670E+03  (-0.5756101E+03)
 number of electron     600.0000000 magnetization      -0.0000000
 augmentation part      600.0000000 magnetization      -0.0000000

 Free energy of the ion-electron system (eV)
  ---------------------------------------------------
  alpha Z        PSCENC =       897.93049857
  Ewald energy   TEWEN  =     -2281.90108060
  -Hartree energ DENC   =    -23181.94648521
  -exchange      EXHF   =         0.00000000
  -V(xc)+E(xc)   XCENC  =      2067.57326893
  PAW double counting   =     21424.79691592   -21559.01982888
  entropy T*S    EENTRO =        -0.06430563
  eigenvalues    EBANDS =     -6454.50883100
  atomic energy  EATOM  =     27815.60422923
  Solvation  Ediel_sol  =         0.00000000
  ---------------------------------------------------
  free energy    TOTEN  =     -1271.53561867 eV

  energy without entropy =    -1271.47131304  energy(sigma->0) =    -1271.50346585


--------------------------------------------------------------------------------------------------------




--------------------------------------- Iteration      1(   4)  ---------------------------------------


     EDDAV:  cpu time   32.4746: real time   32.4769
       DOS:  cpu time    0.0046: real time    0.0046
    --------------------------------------------
      LOOP:  cpu time   32.4791: real time   32.4814

 eigenvalue-minimisations  : 13408
 total energy-change (2. order) :-0.2496789E+02  (-0.2471227E+02)
 number of electron     600.0000000 magnetization      -0.0000000
 augmentation part      600.0000000 magnetization      -0.0000000

 Free energy of the ion-electron system (eV)
  ---------------------------------------------------
  alpha Z        PSCENC =       897.93049857
  Ewald energy   TEWEN  =     -2281.90108060
  -Hartree energ DENC   =    -23181.94648521
  -exchange      EXHF   =         0.00000000
  -V(xc)+E(xc)   XCENC  =      2067.57326893
  PAW double counting   =     21424.79691592   -21559.01982888
  entropy T*S    EENTRO =        -0.07298619
  eigenvalues    EBANDS =     -6479.46804093
  atomic energy  EATOM  =     27815.60422923
  Solvation  Ediel_sol  =         0.00000000
  ---------------------------------------------------
  free energy    TOTEN  =     -1296.50350917 eV

  energy without entropy =    -1296.43052298  energy(sigma->0) =    -1296.46701607


--------------------------------------------------------------------------------------------------------




--------------------------------------- Iteration      1(   5)  ---------------------------------------


     EDDAV:  cpu time   30.0905: real time   30.0925
       DOS:  cpu time    0.0048: real time    0.0048
    --------------------------------------------
      LOOP:  cpu time   30.0953: real time   30.0973

 eigenvalue-minimisations  : 11936
 total energy-change (2. order) :-0.5385967E+00  (-0.5366918E+00)
 number of electron     600.0000000 magnetization      -0.0000000
 augmentation part      600.0000000 magnetization      -0.0000000

 Free energy of the ion-electron system (eV)
  ---------------------------------------------------
  alpha Z        PSCENC =       897.93049857
  Ewald energy   TEWEN  =     -2281.90108060
  -Hartree energ DENC   =    -23181.94648521
  -exchange      EXHF   =         0.00000000
  -V(xc)+E(xc)   XCENC  =      2067.57326893
  PAW double counting   =     21424.79691592   -21559.01982888
  entropy T*S    EENTRO =        -0.07342974
  eigenvalues    EBANDS =     -6480.00619405
  atomic energy  EATOM  =     27815.60422923
  Solvation  Ediel_sol  =         0.00000000
  ---------------------------------------------------
  free energy    TOTEN  =     -1297.04210583 eV

  energy without entropy =    -1296.96867609  energy(sigma->0) =    -1297.00539096


--------------------------------------------------------------------------------------------------------




--------------------------------------- Iteration      1(   6)  ---------------------------------------


     EDDAV:  cpu time   34.4714: real time   34.4738
       DOS:  cpu time    0.0043: real time    0.0043
    --------------------------------------------
      LOOP:  cpu time   34.4757: real time   34.4781

 eigenvalue-minimisations  : 14240
 total energy-change (2. order) :-0.3165446E-01  (-0.3163939E-01)
 number of electron     600.0000000 magnetization      -0.0000000
 augmentation part      600.0000000 magnetization      -0.0000000

 Free energy of the ion-electron system (eV)
  ---------------------------------------------------
  alpha Z        PSCENC =       897.93049857
  Ewald energy   TEWEN  =     -2281.90108060
  -Hartree energ DENC   =    -23181.94648521
  -exchange      EXHF   =         0.00000000
  -V(xc)+E(xc)   XCENC  =      2067.57326893
  PAW double counting   =     21424.79691592   -21559.01982888
  entropy T*S    EENTRO =        -0.07343771
  eigenvalues    EBANDS =     -6480.03784054
  atomic energy  EATOM  =     27815.60422923
  Solvation  Ediel_sol  =         0.00000000
  ---------------------------------------------------
  free energy    TOTEN  =     -1297.07376029 eV

  energy without entropy =    -1297.00032259  energy(sigma->0) =    -1297.03704144


--------------------------------------------------------------------------------------------------------




--------------------------------------- Iteration      1(   7)  ---------------------------------------


     EDDAV:  cpu time   30.6904: real time   30.6961
       DOS:  cpu time    0.0045: real time    0.0045
    --------------------------------------------
      LOOP:  cpu time   30.6948: real time   30.7005

 eigenvalue-minimisations  : 12032
 total energy-change (2. order) :-0.5137609E-03  (-0.5135567E-03)
 number of electron     600.0000000 magnetization      -0.0000000
 augmentation part      600.0000000 magnetization      -0.0000000

 Free energy of the ion-electron system (eV)
  ---------------------------------------------------
  alpha Z        PSCENC =       897.93049857
  Ewald energy   TEWEN  =     -2281.90108060
  -Hartree energ DENC   =    -23181.94648521
  -exchange      EXHF   =         0.00000000
  -V(xc)+E(xc)   XCENC  =      2067.57326893
  PAW double counting   =     21424.79691592   -21559.01982888
  entropy T*S    EENTRO =        -0.07343820
  eigenvalues    EBANDS =     -6480.03835381
  atomic energy  EATOM  =     27815.60422923
  Solvation  Ediel_sol  =         0.00000000
  ---------------------------------------------------
  free energy    TOTEN  =     -1297.07427406 eV

  energy without entropy =    -1297.00083586  energy(sigma->0) =    -1297.03755496


--------------------------------------------------------------------------------------------------------




--------------------------------------- Iteration      1(   8)  ---------------------------------------


     EDDAV:  cpu time   34.4357: real time   34.4420
       DOS:  cpu time    0.0044: real time    0.0044
    CHARGE:  cpu time    0.8310: real time    0.8327
    MIXING:  cpu time    0.0105: real time    0.0118
    --------------------------------------------
      LOOP:  cpu time   35.2817: real time   35.2910

 eigenvalue-minimisations  : 14176
 total energy-change (2. order) :-0.1774054E-04  (-0.1773856E-04)
 number of electron     600.0000086 magnetization      -0.0001706
 augmentation part       32.0603610 magnetization       0.0015960

 Broyden mixing:
  rms(total) = 0.95913E+01    rms(broyden)= 0.95908E+01
  rms(prec ) = 0.10237E+02
  weight for this iteration     100.00

 Free energy of the ion-electron system (eV)
  ---------------------------------------------------
  alpha Z        PSCENC =       897.93049857
  Ewald energy   TEWEN  =     -2281.90108060
  -Hartree energ DENC   =    -23181.94648521
  -exchange      EXHF   =         0.00000000
  -V(xc)+E(xc)   XCENC  =      2067.57326893
  PAW double counting   =     21424.79691592   -21559.01982888
  entropy T*S    EENTRO =        -0.07343821
  eigenvalues    EBANDS =     -6480.03837154
  atomic energy  EATOM  =     27815.60422923
  Solvation  Ediel_sol  =         0.00000000
  ---------------------------------------------------
  free energy    TOTEN  =     -1297.07429180 eV

  energy without entropy =    -1297.00085359  energy(sigma->0) =    -1297.03757269


--------------------------------------------------------------------------------------------------------




--------------------------------------- Iteration      1(   9)  ---------------------------------------


    POTLOK:  cpu time    0.1612: real time    0.1613
    SETDIJ:  cpu time    0.0596: real time    0.0596
     EDDAV:  cpu time   37.9880: real time   37.9990
       DOS:  cpu time    0.0047: real time    0.0047
    CHARGE:  cpu time    0.7871: real time    0.7872
    MIXING:  cpu time    0.0088: real time    0.0206
    --------------------------------------------
      LOOP:  cpu time   39.0094: real time   39.0325

 eigenvalue-minimisations  : 15776
 total energy-change (2. order) :-0.3941420E+03  (-0.4359957E+03)
 number of electron     600.0000025 magnetization       0.0004475
 augmentation part       55.5935074 magnetization      -0.1469086

 Broyden mixing:
  rms(total) = 0.38363E+02    rms(broyden)= 0.38363E+02
  rms(prec ) = 0.38731E+02
  weight for this iteration     100.00

 eigenvalues of (default mixing * dielectric matrix)
  average eigenvalue GAMMA=   0.0617
  0.0617

 Free energy of the ion-electron system (eV)
  ---------------------------------------------------
  alpha Z        PSCENC =       897.93049857
  Ewald energy   TEWEN  =     -2281.90108060
  -Hartree energ DENC   =    -23797.56181560
  -exchange      EXHF   =         0.00000000
  -V(xc)+E(xc)   XCENC  =      2106.57459948
  PAW double counting   =     32193.54366140   -32286.91106931
  entropy T*S    EENTRO =        -0.07852450
  eigenvalues    EBANDS =     -6338.41683586
  atomic energy  EATOM  =     27815.60422923
  Solvation  Ediel_sol  =         0.00000000
  ---------------------------------------------------
  free energy    TOTEN  =     -1691.21633719 eV

  energy without entropy =    -1691.13781269  energy(sigma->0) =    -1691.17707494


--------------------------------------------------------------------------------------------------------




--------------------------------------- Iteration      1(  10)  ---------------------------------------


    POTLOK:  cpu time    0.1627: real time    0.1628
    SETDIJ:  cpu time    0.0596: real time    0.0596
     EDDAV:  cpu time   29.2093: real time   29.2147
       DOS:  cpu time    0.0052: real time    0.0052
    CHARGE:  cpu time    0.7934: real time    0.7935
    MIXING:  cpu time    0.0057: real time    0.0096
    --------------------------------------------
      LOOP:  cpu time   30.2359: real time   30.2454

 eigenvalue-minimisations  : 11648
 total energy-change (2. order) : 0.7733418E+02  (-0.3840578E+02)
 number of electron     600.0000031 magnetization      -0.0100772
 augmentation part       53.5499103 magnetization       0.0411695

 Broyden mixing:
  rms(total) = 0.25804E+02    rms(broyden)= 0.25804E+02
  rms(prec ) = 0.26294E+02
  weight for this iteration     100.00

 eigenvalues of (default mixing * dielectric matrix)
  average eigenvalue GAMMA=   0.2954
  0.2954  0.2954

 Free energy of the ion-electron system (eV)
  ---------------------------------------------------
  alpha Z        PSCENC =       897.93049857
  Ewald energy   TEWEN  =     -2281.90108060
  -Hartree energ DENC   =    -23827.25970329
  -exchange      EXHF   =         0.00000000
  -V(xc)+E(xc)   XCENC  =      2108.24181608
  PAW double counting   =     32998.39706691   -33101.34228009
  entropy T*S    EENTRO =        -0.09943972
  eigenvalues    EBANDS =     -6223.45326119
  atomic energy  EATOM  =     27815.60422923
  Solvation  Ediel_sol  =         0.00000000
  ---------------------------------------------------
  free energy    TOTEN  =     -1613.88215411 eV

  energy without entropy =    -1613.78271439  energy(sigma->0) =    -1613.83243425


--------------------------------------------------------------------------------------------------------




--------------------------------------- Iteration      1(  11)  ---------------------------------------


    POTLOK:  cpu time    0.1546: real time    0.1546
    SETDIJ:  cpu time    0.0596: real time    0.0596
     EDDAV:  cpu time   35.4680: real time   35.4758
       DOS:  cpu time    0.0048: real time    0.0048
    CHARGE:  cpu time    0.8308: real time    0.8308
    MIXING:  cpu time    0.0052: real time    0.0070
    --------------------------------------------
      LOOP:  cpu time   36.5230: real time   36.5327

 eigenvalue-minimisations  : 14112
 total energy-change (2. order) : 0.3386033E+03  (-0.1346528E+03)
 number of electron     600.0000041 magnetization      -0.0000276
 augmentation part       51.1860333 magnetization      -0.5581474

 Broyden mixing:
  rms(total) = 0.10470E+02    rms(broyden)= 0.10470E+02
  rms(prec ) = 0.12357E+02
  weight for this iteration     100.00

 eigenvalues of (default mixing * dielectric matrix)
  average eigenvalue GAMMA=   0.3552
  0.4103  0.4103  0.2451

 Free energy of the ion-electron system (eV)
  ---------------------------------------------------
  alpha Z        PSCENC =       897.93049857
  Ewald energy   TEWEN  =     -2281.90108060
  -Hartree energ DENC   =    -23908.78288903
  -exchange      EXHF   =         0.00000000
  -V(xc)+E(xc)   XCENC  =      2113.22418341
  PAW double counting   =     37005.78734858   -37152.08952344
  entropy T*S    EENTRO =        -0.07408254
  eigenvalues    EBANDS =     -5764.97757642
  atomic energy  EATOM  =     27815.60422923
  Solvation  Ediel_sol  =         0.00000000
  ---------------------------------------------------
  free energy    TOTEN  =     -1275.27889224 eV

  energy without entropy =    -1275.20480969  energy(sigma->0) =    -1275.24185096


--------------------------------------------------------------------------------------------------------




--------------------------------------- Iteration      1(  12)  ---------------------------------------


    POTLOK:  cpu time    0.1549: real time    0.1550
    SETDIJ:  cpu time    0.0597: real time    0.0597
     EDDAV:  cpu time   33.4727: real time   33.4805
       DOS:  cpu time    0.0053: real time    0.0053
    CHARGE:  cpu time    0.7817: real time    0.7818
    MIXING:  cpu time    0.0048: real time    0.0048
    --------------------------------------------
      LOOP:  cpu time   34.4792: real time   34.4872

 eigenvalue-minimisations  : 13184
 total energy-change (2. order) : 0.9498848E+02  (-0.9927775E+02)
 number of electron     600.0000026 magnetization       0.0011781
 augmentation part       42.5195086 magnetization      -0.0576999

 Broyden mixing:
  rms(total) = 0.39054E+01    rms(broyden)= 0.39041E+01
  rms(prec ) = 0.46396E+01
  weight for this iteration     100.00

 eigenvalues of (default mixing * dielectric matrix)
  average eigenvalue GAMMA=   0.3549
  0.4974  0.3580  0.3580  0.2060

 Free energy of the ion-electron system (eV)
  ---------------------------------------------------
  alpha Z        PSCENC =       897.93049857
  Ewald energy   TEWEN  =     -2281.90108060
  -Hartree energ DENC   =    -23976.05126898
  -exchange      EXHF   =         0.00000000
  -V(xc)+E(xc)   XCENC  =      2116.81687840
  PAW double counting   =     38416.01908884   -38573.72686619
  entropy T*S    EENTRO =        -0.03618453
  eigenvalues    EBANDS =     -5594.94570927
  atomic energy  EATOM  =     27815.60422923
  Solvation  Ediel_sol  =         0.00000000
  ---------------------------------------------------
  free energy    TOTEN  =     -1180.29041453 eV

  energy without entropy =    -1180.25423000  energy(sigma->0) =    -1180.27232227


--------------------------------------------------------------------------------------------------------




--------------------------------------- Iteration      1(  13)  ---------------------------------------


    POTLOK:  cpu time    0.1547: real time    0.1549
    SETDIJ:  cpu time    0.0602: real time    0.0602
     EDDAV:  cpu time   31.2892: real time   31.2948
       DOS:  cpu time    0.0054: real time    0.0054
    CHARGE:  cpu time    0.7831: real time    0.7833
    MIXING:  cpu time    0.0055: real time    0.0055
    --------------------------------------------
      LOOP:  cpu time   32.2982: real time   32.3040

 eigenvalue-minimisations  : 12224
 total energy-change (2. order) : 0.4169826E+01  (-0.4993291E+02)
 number of electron     600.0000052 magnetization       0.0020144
 augmentation part       37.1797169 magnetization      -0.2067371

 Broyden mixing:
  rms(total) = 0.38094E+01    rms(broyden)= 0.38092E+01
  rms(prec ) = 0.40218E+01
  weight for this iteration     100.00

 eigenvalues of (default mixing * dielectric matrix)
  average eigenvalue GAMMA=   0.3962
  0.5207  0.5207  0.3667  0.3667  0.2061

 Free energy of the ion-electron system (eV)
  ---------------------------------------------------
  alpha Z        PSCENC =       897.93049857
  Ewald energy   TEWEN  =     -2281.90108060
  -Hartree energ DENC   =    -24138.15814187
  -exchange      EXHF   =         0.00000000
  -V(xc)+E(xc)   XCENC  =      2124.77619990
  PAW double counting   =     42136.36131575   -42299.91638959
  entropy T*S    EENTRO =        -0.04019339
  eigenvalues    EBANDS =     -5430.77702625
  atomic energy  EATOM  =     27815.60422923
  Solvation  Ediel_sol  =         0.00000000
  ---------------------------------------------------
  free energy    TOTEN  =     -1176.12058825 eV

  energy without entropy =    -1176.08039486  energy(sigma->0) =    -1176.10049155


--------------------------------------------------------------------------------------------------------




--------------------------------------- Iteration      1(  14)  ---------------------------------------


    POTLOK:  cpu time    0.1544: real time    0.1550
    SETDIJ:  cpu time    0.0594: real time    0.0594
     EDDAV:  cpu time   30.5478: real time   30.5541
       DOS:  cpu time    0.0049: real time    0.0049
    CHARGE:  cpu time    0.7836: real time    0.7837
    MIXING:  cpu time    0.0050: real time    0.0050
    --------------------------------------------
      LOOP:  cpu time   31.5550: real time   31.5621

 eigenvalue-minimisations  : 12448
 total energy-change (2. order) :-0.4870317E+01  (-0.2150340E+02)
 number of electron     600.0000042 magnetization      -0.0295147
 augmentation part       41.1947774 magnetization       0.9683580

 Broyden mixing:
  rms(total) = 0.56318E+01    rms(broyden)= 0.56317E+01
  rms(prec ) = 0.63474E+01
  weight for this iteration     100.00

 eigenvalues of (default mixing * dielectric matrix)
  average eigenvalue GAMMA=   0.3993
  0.6803  0.6029  0.3740  0.3740  0.2144  0.1502

 Free energy of the ion-electron system (eV)
  ---------------------------------------------------
  alpha Z        PSCENC =       897.93049857
  Ewald energy   TEWEN  =     -2281.90108060
  -Hartree energ DENC   =    -24235.17061513
  -exchange      EXHF   =         0.00000000
  -V(xc)+E(xc)   XCENC  =      2131.89465938
  PAW double counting   =     46061.08133717   -46221.04640711
  entropy T*S    EENTRO =        -0.03327566
  eigenvalues    EBANDS =     -5349.35025100
  atomic energy  EATOM  =     27815.60422923
  Solvation  Ediel_sol  =         0.00000000
  ---------------------------------------------------
  free energy    TOTEN  =     -1180.99090515 eV

[...]
   80            fft3d_mpi                            30.832819                     6240   5
   81              fftbas_plan_mpi                      30.810931                   6240   6
   82                dfftw_execute                        14.426814                18720   7
   83                map_forward                          13.080273                12480   7
   84                  map_gather                            3.431899               6240   8
   85                  m_alltoallv_z                         3.164129               6240   8
   86                  map_scatter                           3.917363               6240   8
   87          pw_charge                             3.506368                       6240   4
   88          fft3d_mpi                             0.456929                        104   4
   89            fftbas_plan_mpi                       0.417507                      104   5
   90              dfftw_execute                         0.159549                    312   6
   91              map_backward                          0.202368                    208   6
   92                map_gather                            0.064052                  208   7
   93                m_alltoallv_z                         0.132034                  208   7
   94                map_scatter                           0.003769                  208   7
   95        depsum                                0.164215                           52   3
   96        fft3d_mpi                             0.451517                          104   3
   97          fftbas_plan_mpi                       0.442235                        104   4
   98            dfftw_execute                         0.060330                      312   5
   99            map_backward                          0.308198                      208   5
  100              map_gather                            0.011315                    104   6
  101              m_alltoallv_z                         0.271493                    104   6
  102              map_scatter                           0.023750                    104   6
  103      brmix                                 0.616839                             52   2
  104        brpre                                 0.004582                          104   3
  105        setg0                                 0.064551                           54   3
  106        broyd                                 0.429351                           52   3
  107          brsav                                 0.013332                       1785   4
  108          brget                                 0.052497                       8129   4
  109      force_and_stress                     23.058763                              1   2
  110        set_charge                            0.784411                            1   3
  111          soft_charge                           0.739816                          1   4
  112            fftwav_mpi                            0.654294                      120   5
  113              fft3d_mpi                             0.587889                    120   6
  114                fftbas_plan_mpi                       0.587399                  120   7
  115                  dfftw_execute                         0.276249                360   8
  116                  map_forward                           0.248562                240   8
  117                    map_gather                            0.066483              120   9
  118                    m_alltoallv_z                         0.057250              120   9
  119                    map_scatter                           0.077097              120   9
  120            pw_charge                             0.067822                      120   5
  121            fft3d_mpi                             0.007964                        2   5
  122              fftbas_plan_mpi                       0.007128                      2   6
  123                dfftw_execute                         0.003057                    6   7
  124                map_backward                          0.003047                    4   7
  125                  map_gather                            0.001269                  4   8
  126                  m_alltoallv_z                         0.001660                  4   8
  127                  map_scatter                           0.000069                  4   8
  128          depsum                                0.003223                          1   4
  129          fft3d_mpi                             0.008071                          2   4
  130            fftbas_plan_mpi                       0.007887                        2   5
  131              dfftw_execute                         0.001262                      6   6
  132              map_backward                          0.005077                      4   6
  133                map_gather                            0.000167                    2   7
  134                m_alltoallv_z                         0.004485                    2   7
  135                map_scatter                           0.000394                    2   7
  136        forloc                                0.091956                            1   3
  137        fornlr                                3.407343                            1   3
  138          rspher_all                            0.093029                          3   4
  139          phaser                                0.251470                         18   4
  140          rpro_isp                              3.041053                         18   4
  141            fftwav_mpi                            2.299099                      432   5
  142              fft3d_mpi                             2.060625                    432   6
  143                fftbas_plan_mpi                       2.059015                  432   7
  144                  dfftw_execute                         0.978138               1296   8
  145                  map_forward                           0.850060                864   8
  146                    map_gather                            0.221686              432   9
  147                    m_alltoallv_z                         0.192343              432   9
  148                    map_scatter                           0.264348              432   9
  149            rpromu                                0.737495                      108   5
  150              crrexp_mul_wave                       0.369718                  67392   6
  151              rpromu_gemm                           0.239693                  16848   6
  152        fordep                                0.175333                            1   3
  153          setdij_                               0.174805                          6   4
  154        setdij_                               0.582805                           20   3
  155        set_dd_paw                            0.030282                            1   3
  156        strkin                                0.017327                            1   3
  157        strelo                                0.004287                            1   3
  158        strnlr                               10.147562                            1   3
  159          rspher_all                            0.273413                          9   4
  160          phaser                                0.758692                         54   4
  161          rpro_isp                              9.068135                         54   4
  162            fftwav_mpi                            6.829284                     1296   5
  163              fft3d_mpi                             6.145483                   1296   6
  164                fftbas_plan_mpi                       6.141179                 1296   7
  165                  dfftw_execute                         2.924274               3888   8
  166                  map_forward                           2.526953               2592   8
  167                    map_gather                            0.663643             1296   9
  168                    m_alltoallv_z                         0.564122             1296   9
  169                    map_scatter                           0.789773             1296   9
  170            rpromu                                2.225345                      324   5
  171              crrexp_mul_wave                       1.123671                 202176   6
  172              rpromu_gemm                           0.726106                  50544   6
  173        fft3d_mpi                             0.069822                           22   3
  174          fftbas_plan_mpi                       0.068036                         22   4
  175            dfftw_execute                         0.012931                       66   5
  176            map_forward                           0.017279                       20   5
  177              map_gather                            0.001124                     10   6
  178              m_alltoallv_z                         0.014345                     10   6
  179              map_scatter                           0.001645                     10   6
  180            map_backward                          0.022762                       24   5
  181              map_gather                            0.001188                     12   6
  182              m_alltoallv_z                         0.018618                     12   6
  183              map_scatter                           0.002770                     12   6
  184        forhar                                0.163728                            2   3
  185        strehar                               0.004360                            1   3
  186        chggra                                0.013122                            1   3
  187          fft3d_mpi                             0.010336                          3   4
  188            fftbas_plan_mpi                       0.010041                        3   5
  189              dfftw_execute                         0.001736                      9   6
  190              map_forward                           0.004681                      4   6
  191                map_gather                            0.000203                    2   7
  192                m_alltoallv_z                         0.004150                    2   7
  193                map_scatter                           0.000297                    2   7
  194              map_backward                          0.001731                      2   6
  195                map_gather                            0.000101                    1   7
  196                m_alltoallv_z                         0.001344                    1   7
  197                map_scatter                           0.000268                    1   7
  198        brmix                                 0.018039                            1   3
  199          brpre                                 0.000069                          2   4
  200          setg0                                 0.001146                          1   4
  201          broyd                                 0.014295                          1   4
  202            brget                                 0.001824                      261   5
  203            brsav                                 0.000261                       47   5
 
 Flat profile
 ============
 
             routine name                   CPU           calls
 ---------------------------------------------------------------
 eddav                                 786.151468          60
 total_time                            245.858588           1
 dfftw_execute                         216.305521      283425
 redis_pw                              168.794902       86061
 orth1                                 121.168965       93381
 map_scatter                            63.418236       94689
 redis_proj                             60.021312      108512
 fftbas_plan_mpi                        54.606291       94477
 m_alltoallv_z                          54.108806       94689
 map_gather                             49.586194       94689
 crrexp_mul_work_add                    44.215765     4848324
 fftwav_mpi                             42.571441       61750
 racc0                                  41.579300       31079
 rpro1                                  27.427165       22439
 map_forward                            27.334735      125046
 vhamil                                 26.949548       31079
 crrexp_mul_wave                        21.015019     3792516
 lincom                                 18.956022         732
 phaser                                 11.199306         798
 force_and_stress                        7.548386           1
 w1_copy                                 7.341393       93237
 fftext_mpi                              6.211266       31079
 eccp                                    5.543519        8640
 pw_charge                               3.574190        6360
 kinhamil                                3.545741       31079
 setdij_                                 2.375734          81
 apply_precond                           1.948797       22439
 set_charge                              1.829680          53
 overl                                   1.737165       53530
 set_dd_paw                              1.668399          55
 overl1                                  1.237108       31079
 setup_precond                           1.193347        8640
 rpromu_gemm                             1.072065       73008
 soft_charge                             0.627864          53
 map_backward                            0.619843       63904
 fft3d_mpi                               0.556508       94475
 rpromu                                  0.546530         468
 hamiltmu                                0.438068       31079
 rspher_all                              0.420301          14
 broyd                                   0.375732          53
 choleski                                0.259697          12
 orthch                                  0.246857           1
 raccmu_                                 0.189799       31079
 depsum                                  0.167439          53
 forhar                                  0.163728           2
 w1_projall                              0.143442       22439
 brmix                                   0.120885          53
 forloc                                  0.091956           1
 setg0                                   0.065697          55
 brget                                   0.054320        8390
 strnlr                                  0.047323           1
 truncate_high_frequency_w1              0.028530       39719
 fornlr                                  0.021791           1
 rpro_isp                                0.019664          78
 strkin                                  0.017327           1
 brsav                                   0.013593        1832
 brpre                                   0.004651         106
 strehar                                 0.004360           1
 strelo                                  0.004287           1
 chggra                                  0.002786           1
 fordep                                  0.000528           1
 brgrid                                  0.000389           1
 redis_pw_over_bands                     0.000001           1
 ---------------------------------------------------------------
  summed up times    2133.34926581383     
 
 Accumulative profile
 ====================
 
             routine name                   CPU           calls
 ---------------------------------------------------------------
 total_time                           2133.349266           1
 eddav                                1811.627811          60
 fft3d_mpi                             466.470223       94475
 fftbas_plan_mpi                       465.979627       94477
 fftwav_mpi                            358.816254       61750
 hamiltmu                              268.857605       31079
 dfftw_execute                         216.305521      283425
 redis_pw                              168.794902       86061
 kinhamil                              154.248018       31079
 fftext_mpi                            150.702276       31079
 map_forward                           137.426066      125046
 orth1                                 121.168965       93381
 raccmu_                                87.221972       31079
 racc0                                  85.795065       31079
 map_scatter                            63.418236       94689
 redis_proj                             60.021312      108512
 map_backward                           57.641749       63904
 m_alltoallv_z                          54.108806       94689
 map_gather                             49.586194       94689
 w1_projall                             46.969718       22439
 rpro1                                  46.826276       22439
 crrexp_mul_work_add                    44.215765     4848324
 set_charge                             42.104894          53
 soft_charge                            39.648187          53
 vhamil                                 26.949548       31079
 force_and_stress                       23.058763           1
 crrexp_mul_wave                        21.015019     3792516
 lincom                                 18.956022         732
 rpro_isp                               13.191131          78
 phaser                                 11.199306         798
 strnlr                                 10.147562           1
 w1_copy                                 7.341393       93237
 eccp                                    5.543519        8640
 pw_charge                               3.574190        6360
 fornlr                                  3.407343           1
 rpromu                                  3.234503         468
 setdij_                                 2.375734          81
 apply_precond                           1.948797       22439
 overl                                   1.737165       53530
 set_dd_paw                              1.668399          55
 orthch                                  1.589357           1
 overl1                                  1.237108       31079
 setup_precond                           1.193347        8640
 rpromu_gemm                             1.072065       73008
 brmix                                   0.634878          53
 broyd                                   0.443646          53
 rspher_all                              0.420301          14
 choleski                                0.259697          12
 fordep                                  0.175333           1
 depsum                                  0.167439          53
 forhar                                  0.163728           2
 forloc                                  0.091956           1
 setg0                                   0.065697          55
 brget                                   0.054320        8390
 truncate_high_frequency_w1              0.028530       39719
 strkin                                  0.017327           1
 brsav                                   0.013593        1832
 chggra                                  0.013122           1
 brpre                                   0.004651         106
 strehar                                 0.004360           1
 strelo                                  0.004287           1
 brgrid                                  0.000389           1
 redis_pw_over_bands                     0.000001           1
 ---------------------------------------------------------------
 
Profiling took   6.001253  3.401212  0.011528  0.011168 seconds
Profiling took   6.899477 seconds
