       N       E                     dE             d eps       ncg     rms          rms(c)
DAV:   1     0.450787287940E+04    0.45079E+04   -0.32336E+05  6144   0.165E+03
DAV:   2    -0.755473211404E+03   -0.52633E+04   -0.50363E+04  7264   0.372E+02
DAV:   3    -0.126896920296E+04   -0.51350E+03   -0.50318E+03  7392   0.126E+02
DAV:   4    -0.128751483333E+04   -0.18546E+02   -0.18313E+02  7648   0.268E+01
DAV:   5    -0.128833324968E+04   -0.81842E+00   -0.81674E+00  8864   0.515E+00    0.914E+01
DAV:   6    -0.157747755421E+04   -0.28914E+03   -0.33573E+03  9856   0.107E+02    0.250E+02
DAV:   7    -0.147362596682E+04    0.10385E+03   -0.29937E+02  7360   0.308E+01    0.165E+02
DAV:   8    -0.118662928708E+04    0.28700E+03   -0.53156E+02  9408   0.905E+01    0.601E+01
DAV:   9    -0.116244104413E+04    0.24188E+02   -0.55834E+02  8960   0.682E+01    0.382E+01
DAV:  10    -0.115674974793E+04    0.56913E+01   -0.12891E+02  7904   0.197E+01    0.335E+01
DAV:  11    -0.119397721111E+04   -0.37227E+02   -0.53419E+02  8608   0.258E+01    0.750E+01
DAV:  12    -0.118972001042E+04    0.42572E+01   -0.56963E+02  8704   0.315E+01    0.623E+01
DAV:  13    -0.115411397575E+04    0.35606E+02   -0.81464E+01  8096   0.237E+01    0.164E+01
DAV:  14    -0.116000358921E+04   -0.58896E+01   -0.33189E+01  8416   0.116E+01    0.339E+01
DAV:  15    -0.115876724744E+04    0.12363E+01   -0.56840E+01  8800   0.121E+01    0.169E+01
DAV:  16    -0.115918283053E+04   -0.41558E+00   -0.32173E+00  7552   0.459E+00    0.145E+01
DAV:  17    -0.116044744236E+04   -0.12646E+01   -0.14167E+00  7552   0.322E+00    0.138E+01
DAV:  18    -0.116086962770E+04   -0.42219E+00   -0.11711E+00  8032   0.306E+00    0.139E+01
DAV:  19    -0.116091809742E+04   -0.48470E-01   -0.31081E-01  8160   0.219E+00    0.115E+01
DAV:  20    -0.116134261687E+04   -0.42452E+00   -0.17698E+00  7392   0.240E+00    0.699E+00
DAV:  21    -0.116151791554E+04   -0.17530E+00   -0.32589E-01  7840   0.217E+00    0.666E+00
DAV:  22    -0.116153883610E+04   -0.20921E-01   -0.59350E-02  8352   0.105E+00    0.643E+00
DAV:  23    -0.116159711203E+04   -0.58276E-01   -0.93545E-02  8160   0.145E+00    0.683E+00
DAV:  24    -0.116162490222E+04   -0.27790E-01   -0.44015E-02  8000   0.886E-01    0.677E+00
DAV:  25    -0.116159764412E+04    0.27258E-01   -0.12230E-01  8864   0.192E+00    0.376E+00
DAV:  26    -0.116159150629E+04    0.61378E-02   -0.75871E-02  8736   0.122E+00    0.339E+00
DAV:  27    -0.116155889923E+04    0.32607E-01   -0.10706E-01  9216   0.136E+00    0.220E+00
DAV:  28    -0.116152474202E+04    0.34157E-01   -0.23039E-01  9056   0.129E+00    0.221E+00
DAV:  29    -0.116151882690E+04    0.59151E-02   -0.88709E-02  7840   0.698E-01    0.163E+00
DAV:  30    -0.116150028550E+04    0.18541E-01   -0.35063E-02  8416   0.705E-01    0.197E+00
DAV:  31    -0.116149012181E+04    0.10164E-01   -0.18623E-02  9184   0.523E-01    0.999E-01
DAV:  32    -0.116148443601E+04    0.56858E-02   -0.57142E-02  9024   0.569E-01    0.114E+00
DAV:  33    -0.116148006468E+04    0.43713E-02   -0.99854E-03  8960   0.316E-01    0.106E+00
DAV:  34    -0.116148021544E+04   -0.15076E-03   -0.13726E-03  7456   0.786E-02    0.110E+00
DAV:  35    -0.116148023407E+04   -0.18635E-04   -0.58735E-05  9312   0.151E-02    0.112E+00
DAV:  36    -0.116148032483E+04   -0.90760E-04   -0.13161E-03  8960   0.851E-02    0.113E+00
DAV:  37    -0.116148017266E+04    0.15217E-03   -0.25188E-04  8000   0.487E-02    0.113E+00
DAV:  38    -0.116148275340E+04   -0.25807E-02   -0.10032E-02  8256   0.235E-01    0.138E+00
DAV:  39    -0.116148423186E+04   -0.14785E-02   -0.33054E-03  7552   0.126E-01    0.155E+00
DAV:  40    -0.116148549009E+04   -0.12582E-02   -0.12929E-03  8736   0.831E-02    0.158E+00
DAV:  41    -0.116148559781E+04   -0.10772E-03   -0.15954E-03  8320   0.109E-01    0.147E+00
DAV:  42    -0.116148444163E+04    0.11562E-02   -0.11774E-03  8288   0.813E-02    0.129E+00
DAV:  43    -0.116148361753E+04    0.82409E-03   -0.33954E-04  7808   0.473E-02    0.120E+00
DAV:  44    -0.116148320205E+04    0.41549E-03   -0.21580E-04  8832   0.338E-02    0.115E+00
DAV:  45    -0.116148191994E+04    0.12821E-02   -0.62920E-04  8352   0.647E-02    0.939E-01
DAV:  46    -0.116148014169E+04    0.17782E-02   -0.18646E-03  8320   0.108E-01    0.652E-01
DAV:  47    -0.116147931527E+04    0.82642E-03   -0.16405E-03  8704   0.955E-02    0.381E-01
DAV:  48    -0.116147899519E+04    0.32008E-03   -0.67582E-04  8480   0.666E-02    0.187E-01
DAV:  49    -0.116147896715E+04    0.28037E-04   -0.43459E-04  8192   0.457E-02    0.140E-01
DAV:  50    -0.116147893993E+04    0.27219E-04   -0.10866E-04  8768   0.275E-02    0.608E-02
DAV:  51    -0.116147893482E+04    0.51176E-05   -0.65946E-05  8352   0.198E-02    0.353E-02
DAV:  52    -0.116147893253E+04    0.22836E-05   -0.51456E-05  8416   0.166E-02    0.226E-02
DAV:  53    -0.116147894180E+04   -0.92671E-05   -0.32242E-05  8000   0.130E-02    0.469E-02
DAV:  54    -0.116147894786E+04   -0.60620E-05   -0.54796E-06  7200   0.620E-03    0.588E-02
DAV:  55    -0.116147894721E+04    0.65095E-06   -0.18805E-06  4768   0.362E-03
   1 F= -.11783363E+04 E0= -.11783199E+04  d E =-.117834E+04  mag=    -0.0062
