 vasp.6.0.8 29Jun18 (build Mar 14 2019 11:44:20) complex                        
  
 executed on             LinuxIFC date 2020.12.29  12:23:59
 running  128 mpi-ranks, with    1 threads/rank
 distrk:  each k-point on  128 cores,    1 groups
 distr:  one band on NCORES_PER_BAND=   4 cores,   32 groups


--------------------------------------------------------------------------------------------------------


 INCAR:
 POTCAR:    PAW_PBE C 08Apr2002                   
 POTCAR:    PAW_PBE Co 02Aug2007                  
 POTCAR:    PAW_PBE H 15Jun2001                   
 POTCAR:    PAW_PBE N 08Apr2002                   
 POTCAR:    PAW_PBE O 08Apr2002                   
 POTCAR:    PAW_PBE C 08Apr2002                   
   VRHFIN =C: s2p2                                                              
   LEXCH  = PE                                                                  
   EATOM  =   147.1560 eV,   10.8157 Ry                                         
                                                                                
   TITEL  = PAW_PBE C 08Apr2002                                                 
   LULTRA =        F    use ultrasoft PP ?                                      
   IUNSCR =        1    unscreen: 0-lin 1-nonlin 2-no                           
   RPACOR =    1.200    partial core radius                                     
   POMASS =   12.011; ZVAL   =    4.000    mass and valenz                      
   RCORE  =    1.500    outmost cutoff radius                                   
   RWIGS  =    1.630; RWIGS  =    0.863    wigner-seitz radius (au A)           
   ENMAX  =  400.000; ENMIN  =  300.000 eV                                      
   ICORE  =        2    local potential                                         
   LCOR   =        T    correct aug charges                                     
   LPAW   =        T    paw PP                                                  
   EAUG   =  644.873                                                            
   DEXC   =    0.000                                                            
   RMAX   =    1.529    core radius for proj-oper                               
   RAUG   =    1.300    factor for augmentation sphere                          
   RDEP   =    1.501    radius for radial grids                                 
   RDEPT  =    1.300    core radius for aug-charge                              
                                                                                
   Atomic configuration                                                         
    4 entries                                                                   
     n  l   j            E        occ.                                          
     1  0  0.50      -273.3789   2.0000                                         
     2  0  0.50       -13.7508   2.0000                                         
     2  1  0.50        -5.2854   2.0000                                         
     3  2  1.50        -5.4423   0.0000                                         
   Description                                                                  
     l       E           TYP  RCUT    TYP  RCUT                                 
     0    -13.7508458     23  1.200                                             
     0     -8.2022199     23  1.200                                             
     1     -5.2854383     23  1.500                                             
     1     34.0145650     23  1.500                                             
     2     -5.4423304      7  1.500                                             
  local pseudopotential read in
  partial core-charges read in
  partial kinetic energy density read in
  atomic valenz-charges read in
  non local Contribution for L=           0  read in
    real space projection operators read in
  non local Contribution for L=           0  read in
    real space projection operators read in
  non local Contribution for L=           1  read in
    real space projection operators read in
  non local Contribution for L=           1  read in
    real space projection operators read in
    PAW grid and wavefunctions read in
 
   number of l-projection  operators is LMAX  =           4
   number of lm-projection operators is LMMAX =           8
 
 POTCAR:    PAW_PBE Co 02Aug2007                  
   VRHFIN =Co: d8 s1                                                            
   LEXCH  = PE                                                                  
   EATOM  =   813.3670 eV,   59.7808 Ry                                         
                                                                                
   TITEL  = PAW_PBE Co 02Aug2007                                                
   LULTRA =        F    use ultrasoft PP ?                                      
   IUNSCR =        1    unscreen: 0-lin 1-nonlin 2-no                           
   RPACOR =    2.000    partial core radius                                     
   POMASS =   58.933; ZVAL   =    9.000    mass and valenz                      
   RCORE  =    2.300    outmost cutoff radius                                   
   RWIGS  =    2.460; RWIGS  =    1.302    wigner-seitz radius (au A)           
   ENMAX  =  267.968; ENMIN  =  200.976 eV                                      
   RCLOC  =    1.203    cutoff for local pot                                    
   LCOR   =        T    correct aug charges                                     
   LPAW   =        T    paw PP                                                  
   EAUG   =  477.818                                                            
   DEXC   =    0.000                                                            
   RMAX   =    2.360    core radius for proj-oper                               
   RAUG   =    1.300    factor for augmentation sphere                          
   RDEP   =    2.393    radius for radial grids                                 
   RDEPT  =    1.864    core radius for aug-charge                              
                                                                                
   Atomic configuration                                                         
    9 entries                                                                   
     n  l   j            E        occ.                                          
     1  0  0.50     -7587.6674   2.0000                                         
     2  0  0.50      -893.6084   2.0000                                         
     2  1  1.50      -764.5805   6.0000                                         
     3  0  0.50       -97.5973   2.0000                                         
     3  1  1.50       -60.9648   6.0000                                         
     3  2  2.50        -4.2382   8.0000                                         
     4  0  0.50        -4.3746   1.0000                                         
     4  1  1.50        -4.0817   0.0000                                         
     4  3  2.50        -1.3606   0.0000                                         
   Description                                                                  
     l       E           TYP  RCUT    TYP  RCUT                                 
     2     -4.2382362     23  2.300                                             
     2     -5.5988188     23  2.300                                             
     0     -4.3745797     23  2.300                                             
     0      5.7660125     23  2.300                                             
     1     -2.7211652     23  2.300                                             
     1     16.9860234     23  2.300                                             
  local pseudopotential read in
  partial core-charges read in
  partial kinetic energy density read in
  atomic valenz-charges read in
  non local Contribution for L=           2  read in
    real space projection operators read in
  non local Contribution for L=           2  read in
    real space projection operators read in
  non local Contribution for L=           0  read in
    real space projection operators read in
  non local Contribution for L=           0  read in
    real space projection operators read in
  non local Contribution for L=           1  read in
    real space projection operators read in
  non local Contribution for L=           1  read in
    real space projection operators read in
    PAW grid and wavefunctions read in
 
   number of l-projection  operators is LMAX  =           6
   number of lm-projection operators is LMMAX =          18
 
 POTCAR:    PAW_PBE H 15Jun2001                   
   VRHFIN =H: ultrasoft test                                                    
   LEXCH  = PE                                                                  
   EATOM  =    12.4884 eV,    0.9179 Ry                                         
                                                                                
   TITEL  = PAW_PBE H 15Jun2001                                                 
   LULTRA =        F    use ultrasoft PP ?                                      
   IUNSCR =        0    unscreen: 0-lin 1-nonlin 2-no                           
   RPACOR =    0.000    partial core radius                                     
   POMASS =    1.000; ZVAL   =    1.000    mass and valenz                      
   RCORE  =    1.100    outmost cutoff radius                                   
   RWIGS  =    0.700; RWIGS  =    0.370    wigner-seitz radius (au A)           
   ENMAX  =  250.000; ENMIN  =  200.000 eV                                      
   RCLOC  =    0.701    cutoff for local pot                                    
   LCOR   =        T    correct aug charges                                     
   LPAW   =        T    paw PP                                                  
   EAUG   =  400.000                                                            
   RMAX   =    1.123    core radius for proj-oper                               
   RAUG   =    1.200    factor for augmentation sphere                          
   RDEP   =    1.112    radius for radial grids                                 
   RDEPT  =    0.926    core radius for aug-charge                              
                                                                                
   Atomic configuration                                                         
    2 entries                                                                   
     n  l   j            E        occ.                                          
     1  0  0.50        -6.4927   1.0000                                         
     2  1  0.50        -3.4015   0.0000                                         
   Description                                                                  
     l       E           TYP  RCUT    TYP  RCUT                                 
     0     -6.4927494     23  1.100                                             
     0      6.8029130     23  1.100                                             
     1     -4.0817478     23  1.100                                             
  local pseudopotential read in
  atomic valenz-charges read in
  non local Contribution for L=           0  read in
    real space projection operators read in
  non local Contribution for L=           0  read in
    real space projection operators read in
  non local Contribution for L=           1  read in
    real space projection operators read in
    PAW grid and wavefunctions read in
 
   number of l-projection  operators is LMAX  =           3
   number of lm-projection operators is LMMAX =           5
 
 POTCAR:    PAW_PBE N 08Apr2002                   
   VRHFIN =N: s2p3                                                              
   LEXCH  = PE                                                                  
   EATOM  =   264.5486 eV,   19.4438 Ry                                         
                                                                                
   TITEL  = PAW_PBE N 08Apr2002                                                 
   LULTRA =        F    use ultrasoft PP ?                                      
   IUNSCR =        1    unscreen: 0-lin 1-nonlin 2-no                           
   RPACOR =    1.200    partial core radius                                     
   POMASS =   14.001; ZVAL   =    5.000    mass and valenz                      
   RCORE  =    1.500    outmost cutoff radius                                   
   RWIGS  =    1.400; RWIGS  =    0.741    wigner-seitz radius (au A)           
   ENMAX  =  400.000; ENMIN  =  300.000 eV                                      
   ICORE  =        2    local potential                                         
   LCOR   =        T    correct aug charges                                     
   LPAW   =        T    paw PP                                                  
   EAUG   =  627.112                                                            
   DEXC   =    0.000                                                            
   RMAX   =    1.529    core radius for proj-oper                               
   RAUG   =    1.300    factor for augmentation sphere                          
   RDEP   =    1.514    radius for radial grids                                 
   RDEPT  =    1.338    core radius for aug-charge                              
                                                                                
   Atomic configuration                                                         
    4 entries                                                                   
     n  l   j            E        occ.                                          
     1  0  0.50      -384.7179   2.0000                                         
     2  0  0.50       -18.5828   2.0000                                         
     2  1  0.50        -7.0898   3.0000                                         
     3  2  1.50        -6.8029   0.0000                                         
   Description                                                                  
     l       E           TYP  RCUT    TYP  RCUT                                 
     0    -18.5828119     23  1.200                                             
     0    -13.5018863     23  1.200                                             
     1     -7.0897853     23  1.500                                             
     1      9.5240782     23  1.500                                             
     2     -6.8029130      7  1.500                                             
  local pseudopotential read in
  partial core-charges read in
  partial kinetic energy density read in
  atomic valenz-charges read in
  non local Contribution for L=           0  read in
    real space projection operators read in
  non local Contribution for L=           0  read in
    real space projection operators read in
  non local Contribution for L=           1  read in
    real space projection operators read in
  non local Contribution for L=           1  read in
    real space projection operators read in
    PAW grid and wavefunctions read in
 
   number of l-projection  operators is LMAX  =           4
   number of lm-projection operators is LMMAX =           8
 
 POTCAR:    PAW_PBE O 08Apr2002                   
   VRHFIN =O: s2p4                                                              
   LEXCH  = PE                                                                  
   EATOM  =   432.3788 eV,   31.7789 Ry                                         
                                                                                
   TITEL  = PAW_PBE O 08Apr2002                                                 
   LULTRA =        F    use ultrasoft PP ?                                      
   IUNSCR =        1    unscreen: 0-lin 1-nonlin 2-no                           
   RPACOR =    1.200    partial core radius                                     
   POMASS =   16.000; ZVAL   =    6.000    mass and valenz                      
   RCORE  =    1.520    outmost cutoff radius                                   
   RWIGS  =    1.550; RWIGS  =    0.820    wigner-seitz radius (au A)           
   ENMAX  =  400.000; ENMIN  =  300.000 eV                                      
   ICORE  =        2    local potential                                         
   LCOR   =        T    correct aug charges                                     
   LPAW   =        T    paw PP                                                  
   EAUG   =  605.392                                                            
   DEXC   =    0.000                                                            
   RMAX   =    1.553    core radius for proj-oper                               
   RAUG   =    1.300    factor for augmentation sphere                          
   RDEP   =    1.550    radius for radial grids                                 
   RDEPT  =    1.329    core radius for aug-charge                              
                                                                                
   Atomic configuration                                                         
    4 entries                                                                   
     n  l   j            E        occ.                                          
     1  0  0.50      -514.6923   2.0000                                         
     2  0  0.50       -23.9615   2.0000                                         
     2  1  0.50        -9.0305   4.0000                                         
     3  2  1.50        -9.5241   0.0000                                         
   Description                                                                  
     l       E           TYP  RCUT    TYP  RCUT                                 
     0    -23.9615318     23  1.200                                             
     0     -9.5240782     23  1.200                                             
     1     -9.0304911     23  1.520                                             
     1      8.1634956     23  1.520                                             
     2     -9.5240782      7  1.500                                             
  local pseudopotential read in
  partial core-charges read in
  partial kinetic energy density read in
  kinetic energy density of atom read in
  atomic valenz-charges read in
  non local Contribution for L=           0  read in
    real space projection operators read in
  non local Contribution for L=           0  read in
    real space projection operators read in
  non local Contribution for L=           1  read in
    real space projection operators read in
  non local Contribution for L=           1  read in
    real space projection operators read in
    PAW grid and wavefunctions read in
 
   number of l-projection  operators is LMAX  =           4
   number of lm-projection operators is LMMAX =           8
 
 Optimization of the real space projectors (new method)

 maximal supplied QI-value         = 25.13
 optimisation between [QCUT,QGAM] = [ 12.32, 24.88] = [ 42.47,173.37] Ry 
 Optimized for a Real-space Cutoff    1.06 Angstroem

   l    n(q)    QCUT    max X(q) W(low)/X(q) W(high)/X(q)  e(spline) 
   0      8    12.315   115.676    0.34E-03    0.18E-03    0.23E-06
   0      8    12.315    87.132    0.34E-03    0.18E-03    0.22E-06
   1      7    12.315     4.429    0.45E-03    0.12E-03    0.18E-06
   1      7    12.315     2.733    0.35E-03    0.97E-04    0.15E-06
 Optimization of the real space projectors (new method)

 maximal supplied QI-value         = 16.25
 optimisation between [QCUT,QGAM] = [ 12.51, 25.03] = [ 43.85,175.40] Ry 
 Optimized for a Real-space Cutoff    1.31 Angstroem

   l    n(q)    QCUT    max X(q) W(low)/X(q) W(high)/X(q)  e(spline) 
   2      9    12.514    65.824    0.30E-03    0.46E-03    0.43E-06
   2      9    12.514    61.429    0.31E-03    0.46E-03    0.44E-06
   0     10    12.514    56.174    0.90E-04    0.33E-03    0.30E-06
   0     10    12.514    31.263    0.81E-04    0.30E-03    0.28E-06
   1      9    12.514    19.828    0.38E-03    0.65E-04    0.24E-06
   1      9    12.514    15.139    0.32E-03    0.60E-04    0.20E-06
 Optimization of the real space projectors (new method)

 maximal supplied QI-value         = 34.20
 optimisation between [QCUT,QGAM] = [ 12.31, 24.97] = [ 42.46,174.58] Ry 
 Optimized for a Real-space Cutoff    1.00 Angstroem

   l    n(q)    QCUT    max X(q) W(low)/X(q) W(high)/X(q)  e(spline) 
   0      7    12.313    19.460    0.14E-03    0.42E-03    0.16E-06
   0      7    12.313    12.209    0.12E-03    0.40E-03    0.16E-06
   1      7    12.313     4.655    0.33E-03    0.59E-03    0.89E-07
 Optimization of the real space projectors (new method)

 maximal supplied QI-value         = 25.13
 optimisation between [QCUT,QGAM] = [ 12.32, 24.88] = [ 42.47,173.37] Ry 
 Optimized for a Real-space Cutoff    1.20 Angstroem

   l    n(q)    QCUT    max X(q) W(low)/X(q) W(high)/X(q)  e(spline) 
   0      9    12.315    79.467    0.14E-03    0.22E-04    0.37E-06
   0      9    12.315    66.151    0.14E-03    0.23E-04    0.36E-06
   1      8    12.315    22.077    0.30E-03    0.54E-03    0.45E-06
   1      8    12.315    15.894    0.30E-03    0.55E-03    0.45E-06
 Optimization of the real space projectors (new method)

 maximal supplied QI-value         = 24.76
 optimisation between [QCUT,QGAM] = [ 12.38, 25.00] = [ 42.90,175.06] Ry 
 Optimized for a Real-space Cutoff    1.13 Angstroem

   l    n(q)    QCUT    max X(q) W(low)/X(q) W(high)/X(q)  e(spline) 
   0      8    12.378    20.381    0.16E-03    0.54E-05    0.27E-06
   0      8    12.378    15.268    0.17E-03    0.61E-05    0.29E-06
   1      8    12.378     5.964    0.38E-03    0.23E-03    0.28E-06
   1      8    12.378     5.382    0.33E-03    0.20E-03    0.25E-06
  PAW_PBE C 08Apr2002                   :
 energy of atom  1       EATOM= -147.1560
 kinetic energy error for atom=    0.0057 (will be added to EATOM!!)
  PAW_PBE Co 02Aug2007                  :
 energy of atom  2       EATOM= -813.3670
 kinetic energy error for atom=    0.0018 (will be added to EATOM!!)
  PAW_PBE H 15Jun2001                   :
 energy of atom  3       EATOM=  -12.4884
 kinetic energy error for atom=    0.0004 (will be added to EATOM!!)
  PAW_PBE N 08Apr2002                   :
 energy of atom  4       EATOM= -264.5486
 kinetic energy error for atom=    0.0103 (will be added to EATOM!!)
  PAW_PBE O 08Apr2002                   :
 energy of atom  5       EATOM= -432.3788
 kinetic energy error for atom=    0.0168 (will be added to EATOM!!)
 
 
 POSCAR:  Co_F
  positions in direct lattice
  velocities in cartesian coordinates
 exchange correlation table for  LEXCH =        8
   RHO(1)=    0.500       N(1)  =     2000
   RHO(2)=  100.500       N(2)  =     4000
 


--------------------------------------------------------------------------------------------------------


 ion  position               nearest neighbor table
   1  0.707  0.939  0.046- 107 1.08 117 1.34  65 1.41
   2  0.639  0.917  0.341- 112 1.08 118 1.36  65 1.40
   3  0.942  0.784  0.895- 116 1.08 119 1.35  66 1.40
   4  0.794  0.439  0.546- 110 1.08 120 1.34  67 1.41
   5  0.630  0.291  0.096- 111 1.08 121 1.34  68 1.40
   6  0.361  0.829  0.059- 115 1.08 122 1.36  69 1.40
   7  0.861  0.417  0.841- 101 1.08 123 1.36  67 1.40
   8  0.559  0.284  0.395- 113 1.08 124 1.35  68 1.40
   9  0.370  0.455  0.303- 114 1.08 125 1.34  70 1.40
  10  0.294  0.807  0.354- 104 1.08 126 1.34  69 1.41
  11  0.131  0.955  0.803- 105 1.08 127 1.34  71 1.40
  12  0.140  0.329  0.558- 102 1.08 128 1.36  72 1.40
  13  0.870  0.791  0.596- 108 1.08 129 1.34  66 1.40
  14  0.058  0.962  0.505- 109 1.08 130 1.35  71 1.40
  15  0.207  0.307  0.853- 106 1.08 131 1.34  72 1.41
  16  0.443  0.462  0.005- 103 1.08 132 1.35  70 1.40
  17  0.490  0.021  0.063- 141 1.23 133 1.41  33 1.47
  18  0.572  0.007  0.396- 142 1.23 133 1.42  34 1.48
  19  0.988  0.702  0.582- 143 1.23 134 1.42  35 1.47
  20  0.929  0.507  0.896- 144 1.23 135 1.42  36 1.47
  21  0.513  0.202  0.082- 145 1.23 136 1.42  37 1.47
  22  0.511  0.725  0.338- 146 1.23 137 1.41  38 1.47
  23  0.011  0.521  0.563- 147 1.23 135 1.41  39 1.47
  24  0.603  0.188  0.414- 148 1.23 136 1.41  40 1.47
  25  0.398  0.558  0.987- 149 1.23 138 1.41  41 1.47
  26  0.429  0.739  0.005- 150 1.23 137 1.42  42 1.47
  27  0.013  0.045  0.818- 151 1.23 139 1.42  43 1.47
  28  0.071  0.239  0.503- 152 1.23 140 1.42  44 1.48
  29  0.898  0.688  0.913- 153 1.23 134 1.41  45 1.47
  30  0.102  0.058  0.486- 154 1.23 139 1.41  46 1.47
  31  0.990  0.225  0.836- 155 1.23 140 1.41  47 1.47
  32  0.488  0.544  0.319- 156 1.23 138 1.42  48 1.47
  33  0.485  0.067  0.075-  49 1.38  73 1.40  17 1.47
  34  0.581  0.054  0.398-  50 1.39  73 1.41  18 1.48
  35  0.997  0.655  0.581-  51 1.38  74 1.41  19 1.47
  36  0.920  0.554  0.898-  52 1.39  75 1.41  20 1.47
  37  0.504  0.155  0.081-  53 1.38  76 1.41  21 1.47
  38  0.515  0.679  0.326-  54 1.38  77 1.40  22 1.47
  39  0.015  0.567  0.575-  55 1.38  75 1.40  23 1.47
  40  0.601  0.142  0.405-  56 1.38  76 1.40  24 1.47
  41  0.400  0.604  0.996-  57 1.38  78 1.40  25 1.47
  42  0.420  0.692  0.003-  58 1.39  77 1.41  26 1.47
  43  0.004  0.091  0.818-  59 1.38  79 1.41  27 1.47
  44  0.080  0.193  0.502-  60 1.39  80 1.41  28 1.48
  45  0.900  0.642  0.904-  61 1.38  74 1.40  29 1.47
  46  0.101  0.104  0.495-  62 1.38  79 1.41  30 1.47
  47  0.985  0.179  0.824-  63 1.38  80 1.40  31 1.47
  48  0.497  0.591  0.319-  64 1.38  78 1.41  32 1.47
  49  0.431  0.095  0.923-  88 1.08  33 1.38  53 1.40
  50  0.621  0.070  0.560-  99 1.09  34 1.39  56 1.40
  51  0.060  0.639  0.424-  93 1.09  35 1.38  55 1.40
  52  0.880  0.570  0.060-  90 1.09  36 1.39  61 1.40
  53  0.441  0.139  0.924-  98 1.09  37 1.38  49 1.40
  54  0.569  0.651  0.478-  96 1.08  38 1.38  64 1.40
  55  0.069  0.595  0.423-  86 1.08  39 1.38  51 1.40
  56  0.632  0.114  0.562-  87 1.08  40 1.38  50 1.40
  57  0.368  0.632  0.839-  95 1.08  41 1.38  58 1.40
  58  0.380  0.677  0.840-  91 1.09  42 1.39  57 1.40
  59  0.940  0.107  0.975-  92 1.09  43 1.38  63 1.40
  60  0.120  0.177  0.339-  85 1.09  44 1.39  62 1.40
  61  0.868  0.614  0.061-  89 1.08  45 1.38  52 1.40
  62  0.132  0.132  0.338- 100 1.08  46 1.38  60 1.40
  63  0.931  0.151  0.977-  94 1.08  47 1.38  59 1.40
  64  0.560  0.607  0.476-  97 1.09  48 1.38  54 1.40
  65  0.609  0.951  0.202-   2 1.40   1 1.41 133 1.42
  66  0.908  0.760  0.749-  13 1.40   3 1.40 134 1.41
  67  0.892  0.451  0.702-   7 1.40   4 1.41 135 1.42
  68  0.593  0.260  0.250-   5 1.40   8 1.40 136 1.41
  69  0.392  0.795  0.198-   6 1.40  10 1.41 137 1.42
  70  0.408  0.486  0.150-   9 1.40  16 1.40 138 1.41
  71  0.093  0.986  0.650-  11 1.40  14 1.40 139 1.41
  72  0.109  0.295  0.698-  12 1.40  15 1.41 140 1.42
  73  0.544  0.082  0.237-  33 1.40  34 1.41  76 1.42
  74  0.947  0.627  0.740-  45 1.40  35 1.41  75 1.42
  75  0.957  0.582  0.737-  39 1.40  36 1.41  74 1.42
  76  0.554  0.127  0.240-  40 1.40  37 1.41  73 1.42
  77  0.457  0.664  0.163-  38 1.40  42 1.41  78 1.42
  78  0.447  0.619  0.160-  41 1.40  48 1.41  77 1.42
  79  0.053  0.119  0.659-  46 1.41  43 1.41  80 1.42
  80  0.044  0.164  0.662-  47 1.40  44 1.41  79 1.42
  81  0.003  0.874  0.953- 119 1.93 117 1.95 127 1.97 122 1.99
  82  0.998  0.873  0.446- 130 1.93 126 1.95 129 1.97 118 1.99
  83  0.499  0.374  0.453- 124 1.93 120 1.95 125 1.97 128 1.99
  84  0.503  0.372  0.946- 132 1.93 131 1.95 121 1.97 123 1.99
  85  0.137  0.199  0.214-  60 1.09
  86  0.113  0.583  0.299-  55 1.08
  87  0.663  0.126  0.688-  56 1.08
  88  0.387  0.083  0.800-  49 1.08
  89  0.837  0.627  0.187-  61 1.08
  90  0.863  0.547  0.185-  52 1.09
  91  0.363  0.699  0.715-  58 1.09
  92  0.908  0.084  0.097-  59 1.09
  93  0.092  0.662  0.302-  51 1.09
  94  0.887  0.164  0.100-  63 1.08
  95  0.337  0.620  0.713-  57 1.08
  96  0.613  0.664  0.601-  54 1.08
  97  0.592  0.584  0.598-  64 1.09
  98  0.408  0.162  0.803-  53 1.09
  99  0.637  0.047  0.685-  50 1.09
 100  0.163  0.120  0.212-  62 1.08
 101  0.911  0.413  0.983-   7 1.08
 102  0.091  0.333  0.417-  12 1.08
 103  0.473  0.473  0.862-  16 1.08
 104  0.287  0.791  0.493-  10 1.08
 105  0.167  0.959  0.943-  11 1.08
 106  0.214  0.291  0.992-  15 1.08
 107  0.715  0.956  0.907-   1 1.08
 108  0.834  0.787  0.457-  13 1.08
 109  0.028  0.973  0.361-  14 1.08
 110  0.787  0.456  0.407-   4 1.08
 111  0.666  0.287  0.957-   5 1.08
 112  0.589  0.913  0.483-   2 1.08
 113  0.529  0.273  0.538-   8 1.08
 114  0.333  0.459  0.443-   9 1.08
 115  0.411  0.833  0.917-   6 1.08
 116  0.972  0.773  0.038-   3 1.08
 117  0.802  0.902  0.094-   1 1.34 118 1.38  81 1.95
 118  0.761  0.887  0.277-   2 1.36 117 1.38  82 1.99
 119  0.933  0.826  0.829-   3 1.35 129 1.38  81 1.93
 120  0.699  0.402  0.595-   4 1.34 123 1.38  83 1.95
 121  0.611  0.330  0.144-   5 1.34 124 1.38  84 1.97
 122  0.239  0.859  0.123-   6 1.36 126 1.38  81 1.99
 123  0.740  0.388  0.777-   7 1.36 120 1.38  84 1.99
 124  0.568  0.326  0.329-   8 1.35 121 1.38  83 1.93
 125  0.389  0.416  0.255-   9 1.34 132 1.38  83 1.97
 126  0.199  0.845  0.305-  10 1.34 122 1.38  82 1.95
 127  0.112  0.916  0.755-  11 1.34 130 1.38  81 1.97
 128  0.262  0.359  0.623-  12 1.36 131 1.38  83 1.99
 129  0.890  0.830  0.644-  13 1.34 119 1.38  82 1.97
 130  0.068  0.920  0.571-  14 1.35 127 1.38  82 1.93
 131  0.302  0.345  0.805-  15 1.34 128 1.38  84 1.95
 132  0.433  0.420  0.071-  16 1.35 125 1.38  84 1.93
 133  0.545  0.993  0.222-  17 1.41  65 1.42  18 1.42
 134  0.921  0.716  0.747-  29 1.41  66 1.41  19 1.42
 135  0.956  0.493  0.722-  23 1.41  67 1.42  20 1.42
 136  0.579  0.216  0.247-  24 1.41  68 1.41  21 1.42
 137  0.456  0.753  0.178-  22 1.41  69 1.42  26 1.42
 138  0.421  0.530  0.153-  25 1.41  70 1.41  32 1.42
 139  0.080  0.030  0.652-  30 1.41  71 1.41  27 1.42
 140  0.045  0.253  0.677-  31 1.41  72 1.42  28 1.42
 141  0.455  0.007  0.918-  17 1.23
 142  0.595  0.982  0.536-  18 1.23
 143  0.039  0.727  0.446-  19 1.23
 144  0.906  0.482  0.036-  20 1.23
 145  0.461  0.227  0.947-  21 1.23
 146  0.545  0.739  0.483-  22 1.23
 147  0.046  0.507  0.418-  23 1.23
 148  0.623  0.203  0.560-  24 1.23
 149  0.378  0.543  0.840-  25 1.23
 150  0.406  0.764  0.864-  26 1.23
 151  0.962  0.019  0.953-  27 1.23
 152  0.095  0.264  0.363-  28 1.23
 153  0.877  0.703  0.060-  29 1.23
 154  0.123  0.043  0.339-  30 1.23
 155  0.954  0.239  0.982-  31 1.23
 156  0.539  0.519  0.454-  32 1.23
 

IMPORTANT INFORMATION: All symmetrisations will be switched off!
NOSYMM: (Re-)initialisation of all symmetry stuff for point group C_1.


----------------------------------------------------------------------------------------

                                     Primitive cell                                     

  volume of cell :    1489.8147

  direct lattice vectors                    reciprocal lattice vectors
     6.451556059  0.001630460 -0.000617850     0.155001370  0.000004247  0.000054307
    -0.001674531 31.588683125  2.309309059    -0.000008246  0.031813785 -0.002145911
    -0.002587530  0.495540308  7.346544764     0.000015628 -0.010000328  0.136792960

  length of vectors
     6.451556294 31.672982378  7.363238884     0.155001379  0.031886077  0.137158014

  position of ions in fractional coordinates (direct lattice)
     0.707197514  0.939196839  0.046069927
     0.639498901  0.916943041  0.341094662
     0.942154841  0.783881768  0.894554518
     0.794131561  0.439151724  0.546149891
     0.630052804  0.290768615  0.096409414
     0.361041100  0.829108664  0.058804613
     0.861288330  0.417040279  0.841433223
     0.559007942  0.283870157  0.394909669
     0.369955927  0.455283020  0.303435441
     0.293887216  0.807028428  0.354055544
     0.130848280  0.955345555  0.803235891
     0.140214384  0.329167128  0.558148755
     0.870477364  0.790813180  0.596083073
     0.058407576  0.962282789  0.504907115
     0.206986157  0.307016413  0.853475244
     0.442556971  0.462271550  0.005224363
     0.489702821  0.020933675  0.063206056
     0.571515297  0.007118743  0.396095530
     0.987651803  0.701614171  0.581506137
     0.929270811  0.507189304  0.895907839
     0.512642805  0.201586404  0.081953988
     0.510722710  0.725141553  0.337506338
     0.010893111  0.520959945  0.563010955
     0.602751381  0.188367624  0.413792791
     0.398142195  0.557728361  0.986539030
     0.429197835  0.738946713  0.004573250
     0.012925399  0.044553783  0.817765214
     0.071420781  0.239017860  0.503477089
     0.897585076  0.688408445  0.913302923
     0.102408741  0.057747613  0.485843271
     0.989513382  0.225252054  0.836279682
     0.487721926  0.544473061  0.318503939
     0.485488140  0.066812641  0.075111007
     0.580706458  0.053585894  0.398056581
     0.996716237  0.655305006  0.581011335
     0.920047158  0.553650844  0.897748551
     0.503750183  0.155275423  0.081397668
     0.515054524  0.679251515  0.325574851
     0.015102551  0.566843667  0.574836057
     0.600945984  0.142415495  0.404714914
     0.399794447  0.603673859  0.995723865
     0.419924246  0.692487863  0.002622620
     0.003605935  0.090866750  0.818171165
     0.080411312  0.192542399  0.501579271
     0.899532334  0.642465644  0.904253500
     0.100686438  0.103703989  0.494907425
     0.985236444  0.179350719  0.824462634
     0.497030842  0.590780772  0.319030918
     0.431028280  0.095346058  0.922885887
     0.620614653  0.069516838  0.560467764
     0.059681824  0.639451051  0.424007644
     0.879729853  0.569592192  0.060030331
     0.440655388  0.139432222  0.924378894
     0.569280585  0.650697850  0.477837026
     0.069337341  0.595366176  0.422525147
     0.632024650  0.113701735  0.561974217
     0.368198258  0.632400607  0.838595095
     0.379611486  0.676579374  0.840242935
     0.940498433  0.106718654  0.975116142
     0.120492129  0.176597137  0.339260900
     0.868241503  0.613770895  0.061498281
     0.131966437  0.132414235  0.337715279
     0.930798425  0.150809560  0.976620401
     0.559754554  0.606608810  0.476210173
     0.608903735  0.951311617  0.201903267
     0.907705722  0.760323250  0.749381512
     0.892112789  0.451342921  0.701996270
     0.592961555  0.260292526  0.249733956
     0.391973479  0.794810070  0.198348768
     0.407679976  0.485802181  0.150412984
     0.093174777  0.985840595  0.650037680
     0.109057735  0.294854613  0.697512468
     0.543990891  0.082253486  0.237294552
     0.947049732  0.626866388  0.739701809
     0.956742113  0.582296551  0.736987141
     0.553620382  0.126826013  0.240079467
     0.456849466  0.663814533  0.163297950
     0.447325455  0.619247337  0.160365842
     0.053265434  0.119313224  0.659480096
     0.043678034  0.163887982  0.662315920
     0.002641033  0.873689076  0.953167158
     0.997946174  0.872523826  0.446238546
     0.498666821  0.373711977  0.453347883
     0.502916429  0.372480969  0.946411994
     0.136809513  0.199177764  0.214267882
     0.112982773  0.582519100  0.299470764
     0.662978801  0.126466408  0.687976630
     0.387218851  0.082518341  0.799818209
     0.837076171  0.626540243  0.187426668
     0.863274777  0.546997615  0.184989871
     0.363178841  0.699186068  0.715298104
     0.907726913  0.084182635  0.096957338
     0.092264874  0.661986521  0.302126041
     0.887120368  0.163641954  0.099701799
     0.336981578  0.619650929  0.712600144
     0.612665830  0.663512238  0.601067558
     0.592113567  0.584055202  0.598139899
     0.407814955  0.161978794  0.802530740
     0.636853946  0.046933961  0.685497059
     0.163069953  0.119671130  0.211704753
     0.911039400  0.412820583  0.983003560
     0.090671427  0.333426796  0.416523569
     0.473327579  0.472982569  0.861819092
     0.286759148  0.790662298  0.493044370
     0.167481907  0.959385235  0.942629902
     0.213994338  0.290649401  0.992477998
     0.714501060  0.955641320  0.907216557
     0.834372575  0.786769155  0.456587504
     0.027805379  0.972969885  0.361418772
     0.786927017  0.455532803  0.407183580
     0.665896361  0.286738230  0.956873490
     0.589433709  0.912633680  0.482530795
     0.528758836  0.273199347  0.538420338
     0.333371507  0.459274466  0.442861472
     0.410778187  0.833341214  0.917278826
     0.972489485  0.773189929  0.038087027
     0.802137419  0.901568291  0.094410143
     0.761217051  0.887450630  0.276756599
     0.933182231  0.825751060  0.828617869
     0.699136383  0.401543948  0.594669431
     0.611448178  0.329894104  0.144447738
     0.239295654  0.858624272  0.122874928
     0.739679110  0.387523867  0.777178204
     0.568123264  0.325734670  0.328988359
     0.389208876  0.416170150  0.255318762
     0.198698240  0.844624847  0.305355805
     0.111637079  0.916223704  0.755258129
     0.261956705  0.358637628  0.622565068
     0.889514374  0.829931262  0.644086452
     0.067531549  0.920420901  0.570807362
     0.302296101  0.344601414  0.805074605
     0.433469326  0.420400510  0.070939266
     0.544934141  0.993241424  0.222114526
     0.921006665  0.715918758  0.746964826
     0.955983627  0.493277439  0.722030664
     0.579490775  0.215886962  0.247396021
     0.455881757  0.752853985  0.178473371
     0.421089233  0.530202177  0.152945361
     0.079694438  0.030250665  0.652341830
     0.044847790  0.252933207  0.677367274
     0.454736584  0.007234174  0.917700673
     0.595135856  0.981604470  0.536131131
     0.039087147  0.726689973  0.446294751
     0.905536679  0.481717056  0.036048161
     0.460937995  0.226656265  0.946767862
     0.545397124  0.738839279  0.483075295
     0.045547521  0.507236732  0.417504354
     0.623331226  0.202760827  0.560196117
     0.377903270  0.543325295  0.840115598
     0.405541040  0.764438045  0.864456840
     0.961706867  0.019467390  0.952988273
     0.095278455  0.264490056  0.363369811
     0.876726710  0.702816284  0.059646001
     0.122633124  0.043335349  0.339464029
     0.954495239  0.238973188  0.981706616
     0.538831361  0.519365659  0.453772357

  ion indices of the primitive-cell ions
   primitive index   ion index
                 1           1
                 2           2
                 3           3
                 4           4
                 5           5
                 6           6
                 7           7
                 8           8
                 9           9
                10          10
                11          11
                12          12
                13          13
                14          14
                15          15
                16          16
                17          17
                18          18
                19          19
                20          20
                21          21
                22          22
                23          23
                24          24
                25          25
                26          26
                27          27
                28          28
                29          29
                30          30
                31          31
                32          32
                33          33
                34          34
                35          35
                36          36
                37          37
                38          38
                39          39
                40          40
                41          41
                42          42
                43          43
                44          44
                45          45
                46          46
                47          47
                48          48
                49          49
                50          50
                51          51
                52          52
                53          53
                54          54
                55          55
                56          56
                57          57
                58          58
                59          59
                60          60
                61          61
                62          62
                63          63
                64          64
                65          65
                66          66
                67          67
                68          68
                69          69
                70          70
                71          71
                72          72
                73          73
                74          74
                75          75
                76          76
                77          77
                78          78
                79          79
                80          80
                81          81
                82          82
                83          83
                84          84
                85          85
                86          86
                87          87
                88          88
                89          89
                90          90
                91          91
                92          92
                93          93
                94          94
                95          95
                96          96
                97          97
                98          98
                99          99
               100         100
               101         101
               102         102
               103         103
               104         104
               105         105
               106         106
               107         107
               108         108
               109         109
               110         110
               111         111
               112         112
               113         113
               114         114
               115         115
               116         116
               117         117
               118         118
               119         119
               120         120
               121         121
               122         122
               123         123
               124         124
               125         125
               126         126
               127         127
               128         128
               129         129
               130         130
               131         131
               132         132
               133         133
               134         134
               135         135
               136         136
               137         137
               138         138
               139         139
               140         140
               141         141
               142         142
               143         143
               144         144
               145         145
               146         146
               147         147
               148         148
               149         149
               150         150
               151         151
               152         152
               153         153
               154         154
               155         155
               156         156

----------------------------------------------------------------------------------------

 
 

Automatic generation of k-mesh.
 generate k-points for:    2    1    2
Space group operators:
 irot       det(A)        alpha          n_x          n_y          n_z        tau_x        tau_y        tau_z
    1     1.000000     0.000000     1.000000     0.000000     0.000000     0.000000     0.000000     0.000000
 
 Subroutine IBZKPT returns following result:
 ===========================================
 
 Found      4 irreducible k-points:
 
 Following reciprocal coordinates:
            Coordinates               Weight
  0.000000  0.000000  0.000000      1.000000
  0.500000  0.000000 -0.000000      1.000000
  0.000000 -0.000000  0.500000      1.000000
  0.500000 -0.000000  0.500000      1.000000
 
 Following cartesian coordinates:
            Coordinates               Weight
  0.000000  0.000000  0.000000      1.000000
  0.077501  0.000002  0.000027      1.000000
  0.000008 -0.005000  0.068396      1.000000
  0.077508 -0.004998  0.068424      1.000000
 


--------------------------------------------------------------------------------------------------------




 Dimension of arrays:
   k-points           NKPTS =      4   k-points in BZ     NKDIM =      4   number of bands    NBANDS=    384
   number of dos      NEDOS =    301   number of ions     NIONS =    156
   non local maximal  LDIM  =      6   non local SUM 2l+1 LMDIM =     18
   total plane-waves  NPLWV = 368640
   max r-space proj   IRMAX =   2362   max aug-charges    IRDMAX=   9957
   dimension x,y,z NGX =    40 NGY =  192 NGZ =   48
   dimension x,y,z NGXF=    80 NGYF=  384 NGZF=   96
   support grid    NGXF=    80 NGYF=  384 NGZF=   96
   ions per type =              80   4  32  24  16
   NGX,Y,Z   is equivalent  to a cutoff of  10.31, 10.08, 10.84 a.u.
   NGXF,Y,Z  is equivalent  to a cutoff of  20.61, 20.16, 21.67 a.u.

 SYSTEM =  flex_MOF                                
 POSCAR =   Co_F                                   

 Startparameter for this run:
   NWRITE =      2    write-flag & timer
   PREC   = normal    normal or accurate (medium, high low for compatibility)
   ISTART =      0    job   : 0-new  1-cont  2-samecut
   ICHARG =      2    charge: 1-file 2-atom 10-const
   ISPIN  =      2    spin polarized calculation?
   LNONCOLLINEAR =      F non collinear calculations
   LSORBIT =      F    spin-orbit coupling
   INIWAV =      1    electr: 0-lowe 1-rand  2-diag
   LASPH  =      F    aspherical Exc in radial PAW
   METAGGA=      F    non-selfconsistent MetaGGA calc.

 Electronic Relaxation 1
   ENCUT  =  600.0 eV  44.10 Ry    6.64 a.u.  12.89 63.26 14.71*2*pi/ulx,y,z
   ENINI  =  600.0     initial cutoff
   ENAUG  =  644.9 eV  augmentation charge cutoff
   NELM   =     80;   NELMIN=  8; NELMDL= -5     # of ELM steps 
   EDIFF  = 0.1E-05   stopping-criterion for ELM
   LREAL  =      T    real-space projection
   NLSPLINE    = F    spline interpolate recip. space projectors
   LCOMPAT=      F    compatible to vasp.4.4
   GGA_COMPAT  = T    GGA compatible to vasp.4.4-vasp.4.6
   LMAXPAW     = -100 max onsite density
   LMAXMIX     =    2 max onsite mixed and CHGCAR
   VOSKOWN=      0    Vosko Wilk Nusair interpolation
   ROPT   =   -0.00050  -0.00050  -0.00050  -0.00050
   ROPT   =   -0.00050
 Ionic relaxation
   EDIFFG = -.1E-01   stopping-criterion for IOM
   NSW    =    500    number of steps for IOM
   NBLOCK =      1;   KBLOCK =    500    inner block; outer block 
   IBRION =      2    ionic relax: 0-MD 1-quasi-New 2-CG
   NFREE  =      1    steps in history (QN), initial steepest desc. (CG)
   ISIF   =      4    stress and relaxation
   IWAVPR =     11    prediction:  0-non 1-charg 2-wave 3-comb
   ISYM   =      0    0-nonsym 1-usesym 2-fastsym
   LCORR  =      T    Harris-Foulkes like correction to forces

   POTIM  = 0.5000    time-step for ionic-motion
   TEIN   =    0.0    initial temperature
   TEBEG  =    0.0;   TEEND  =   0.0 temperature during run
   SMASS  =  -3.00    Nose mass-parameter (am)
   estimated Nose-frequenzy (Omega)   =  0.10E-29 period in steps = 0.13E+47 mass=  -0.951E-27a.u.
   SCALEE = 1.0000    scale energy and forces
   NPACO  =    256;   APACO  = 16.0  distance and # of slots for P.C.
   PSTRESS=    0.0 pullay stress

  Mass of Ions in am
   POMASS =  12.01 58.93  1.00 14.00 16.00
  Ionic Valenz
   ZVAL   =   4.00  9.00  1.00  5.00  6.00
  Atomic Wigner-Seitz radii
   RWIGS  =  -1.00 -1.00 -1.00 -1.00 -1.00
  virtual crystal weights 
   VCA    =   1.00  1.00  1.00  1.00  1.00
   NELECT =     604.0000    total number of electrons
   NUPDOWN=      -1.0000    fix difference up-down

 DOS related values:
   EMIN   =  10.00;   EMAX   =-10.00  energy-range for DOS
   EFERMI =   0.00
   ISMEAR =     0;   SIGMA  =   0.05  broadening in eV -4-tet -1-fermi 0-gaus

 Electronic relaxation 2 (details)
   IALGO  =     38    algorithm
   LDIAG  =      T    sub-space diagonalisation (order eigenvalues)
   LSUBROT=      F    optimize rotation matrix (better conditioning)
   TURBO    =      0    0=normal 1=particle mesh
   IRESTART =      0    0=no restart 2=restart with 2 vectors
   NREBOOT  =      0    no. of reboots
   NMIN     =      0    reboot dimension
   EREF     =   0.00    reference energy to select bands
   IMIX   =      4    mixing-type and parameters
     AMIX     =   0.40;   BMIX     =  1.00
     AMIX_MAG =   1.60;   BMIX_MAG =  1.00
     AMIN     =   0.10
     WC   =   100.;   INIMIX=   1;  MIXPRE=   1;  MAXMIX= -45

 Intra band minimization:
   WEIMIN = 0.0010     energy-eigenvalue tresh-hold
   EBREAK =  0.65E-09  absolut break condition
   DEPER  =   0.30     relativ break condition  

   TIME   =   0.40     timestep for ELM

  volume/ion in A,a.u.               =       9.55        64.45
  Fermi-wavevector in a.u.,A,eV,Ry     =   1.211648  2.289682 19.974582  1.468090
  Thomas-Fermi vector in A             =   2.347157
 
 Write flags
   LWAVE        =      T    write WAVECAR
   LDOWNSAMPLE  =      F    k-point downsampling of WAVECAR
   LCHARG       =      T    write CHGCAR
   LVTOT        =      F    write LOCPOT, total local potential
   LVHAR        =      F    write LOCPOT, Hartree potential only
   LELF         =      F    write electronic localiz. function (ELF)
   LORBIT       =     11    0 simple, 1 ext, 2 COOP (PROOUT), +10 PAW based schemes


 Dipole corrections
   LMONO  =      F    monopole corrections only (constant potential shift)
   LDIPOL =      F    correct potential (dipole corrections)
   IDIPOL =      0    1-x, 2-y, 3-z, 4-all directions 
   EPSILON=  1.0000000 bulk dielectric constant

 Exchange correlation treatment:
   GGA     =    PE    GGA type
   LEXCH   =     8    internal setting for exchange type
   VOSKOWN=      0    Vosko Wilk Nusair interpolation
   LHFCALC =     F    Hartree Fock is set to
   LHFONE  =     F    Hartree Fock one center treatment
   AEXX    =    0.0000 exact exchange contribution

 Linear response parameters
   LEPSILON=     F    determine dielectric tensor
   LRPA    =     F    only Hartree local field effects (RPA)
   LNABLA  =     F    use nabla operator in PAW spheres
   LVEL    =     F    velocity operator in full k-point grid
   LINTERFAST=   F  fast interpolation
   KINTER  =     0    interpolate to denser k-point grid
   CSHIFT  =0.1000    complex shift for real part using Kramers Kronig
   OMEGAMAX=  -1.0    maximum frequency
   DEG_THRESHOLD= 0.2000000E-02 threshold for treating states as degnerate
   RTIME   =   -0.100 relaxation time in fs
  (WPLASMAI=    0.000 imaginary part of plasma frequency in eV, 0.658/RTIME)
   DFIELD  = 0.0000000 0.0000000 0.0000000 field for delta impulse in time
 
 Orbital magnetization related:
   ORBITALMAG=     F  switch on orbital magnetization
   LCHIMAG   =     F  perturbation theory with respect to B field
   DQ        =  0.001000  dq finite difference perturbation B field
   LLRAUG    =     F  two centre corrections for induced B field



--------------------------------------------------------------------------------------------------------


 conjugate gradient relaxation of ions
 charge density and potential will be updated during run
 spin polarized calculation
 Variant of blocked Davidson
 Davidson routine will perform the subspace rotation
 perform sub-space diagonalisation
    after iterative eigenvector-optimisation
 modified Broyden-mixing scheme, WC =      100.0
 initial mixing is a Kerker type mixing with AMIX =  0.4000 and BMIX =      1.0000
 Hartree-type preconditioning will be used
 using additional bands           82
 real space projection scheme for non local part
 use partial core corrections
 calculate Harris-corrections to forces 
   (improved forces if not selfconsistent)
 use gradient corrections 
 use of overlap-Matrix (Vanderbilt PP)
 Gauss-broadening in eV      SIGMA  =   0.05


--------------------------------------------------------------------------------------------------------


  energy-cutoff  :      600.00
  volume of cell :     1489.81
      direct lattice vectors                 reciprocal lattice vectors
     6.451556059  0.001630460 -0.000617850     0.155001370  0.000004247  0.000054307
    -0.001674531 31.588683125  2.309309059    -0.000008246  0.031813785 -0.002145911
    -0.002587530  0.495540308  7.346544764     0.000015628 -0.010000328  0.136792960

  length of vectors
     6.451556294 31.672982378  7.363238884     0.155001379  0.031886077  0.137158014


 
 k-points in units of 2pi/SCALE and weight: read from INCAR                         
   0.00000000  0.00000000  0.00000000       0.250
   0.07750068  0.00000212  0.00002715       0.250
   0.00000781 -0.00500016  0.06839648       0.250
   0.07750850 -0.00499804  0.06842363       0.250
 
 k-points in reciprocal lattice and weights: read from INCAR                         
   0.00000000  0.00000000  0.00000000       0.250
   0.50000000  0.00000000 -0.00000000       0.250
   0.00000000 -0.00000000  0.50000000       0.250
   0.50000000 -0.00000000  0.50000000       0.250
 
 position of ions in fractional coordinates (direct lattice) 
   0.70719751  0.93919684  0.04606993
   0.63949890  0.91694304  0.34109466
   0.94215484  0.78388177  0.89455452
   0.79413156  0.43915172  0.54614989
   0.63005280  0.29076862  0.09640941
   0.36104110  0.82910866  0.05880461
   0.86128833  0.41704028  0.84143322
   0.55900794  0.28387016  0.39490967
   0.36995593  0.45528302  0.30343544
   0.29388722  0.80702843  0.35405554
   0.13084828  0.95534555  0.80323589
   0.14021438  0.32916713  0.55814875
   0.87047736  0.79081318  0.59608307
   0.05840758  0.96228279  0.50490712
   0.20698616  0.30701641  0.85347524
   0.44255697  0.46227155  0.00522436
   0.48970282  0.02093368  0.06320606
   0.57151530  0.00711874  0.39609553
   0.98765180  0.70161417  0.58150614
   0.92927081  0.50718930  0.89590784
   0.51264281  0.20158640  0.08195399
   0.51072271  0.72514155  0.33750634
   0.01089311  0.52095995  0.56301096
   0.60275138  0.18836762  0.41379279
   0.39814220  0.55772836  0.98653903
   0.42919784  0.73894671  0.00457325
   0.01292540  0.04455378  0.81776521
   0.07142078  0.23901786  0.50347709
   0.89758508  0.68840844  0.91330292
   0.10240874  0.05774761  0.48584327
   0.98951338  0.22525205  0.83627968
   0.48772193  0.54447306  0.31850394
   0.48548814  0.06681264  0.07511101
   0.58070646  0.05358589  0.39805658
   0.99671624  0.65530501  0.58101134
   0.92004716  0.55365084  0.89774855
   0.50375018  0.15527542  0.08139767
   0.51505452  0.67925152  0.32557485
   0.01510255  0.56684367  0.57483606
   0.60094598  0.14241549  0.40471491
   0.39979445  0.60367386  0.99572387
   0.41992425  0.69248786  0.00262262
   0.00360593  0.09086675  0.81817116
   0.08041131  0.19254240  0.50157927
   0.89953233  0.64246564  0.90425350
   0.10068644  0.10370399  0.49490742
   0.98523644  0.17935072  0.82446263
   0.49703084  0.59078077  0.31903092
   0.43102828  0.09534606  0.92288589
   0.62061465  0.06951684  0.56046776
   0.05968182  0.63945105  0.42400764
   0.87972985  0.56959219  0.06003033
   0.44065539  0.13943222  0.92437889
   0.56928059  0.65069785  0.47783703
   0.06933734  0.59536618  0.42252515
   0.63202465  0.11370173  0.56197422
   0.36819826  0.63240061  0.83859510
   0.37961149  0.67657937  0.84024294
   0.94049843  0.10671865  0.97511614
   0.12049213  0.17659714  0.33926090
   0.86824150  0.61377089  0.06149828
   0.13196644  0.13241423  0.33771528
   0.93079843  0.15080956  0.97662040
   0.55975455  0.60660881  0.47621017
   0.60890373  0.95131162  0.20190327
   0.90770572  0.76032325  0.74938151
   0.89211279  0.45134292  0.70199627
   0.59296156  0.26029253  0.24973396
   0.39197348  0.79481007  0.19834877
   0.40767998  0.48580218  0.15041298
   0.09317478  0.98584060  0.65003768
   0.10905774  0.29485461  0.69751247
   0.54399089  0.08225349  0.23729455
   0.94704973  0.62686639  0.73970181
   0.95674211  0.58229655  0.73698714
   0.55362038  0.12682601  0.24007947
   0.45684947  0.66381453  0.16329795
   0.44732546  0.61924734  0.16036584
   0.05326543  0.11931322  0.65948010
   0.04367803  0.16388798  0.66231592
   0.00264103  0.87368908  0.95316716
   0.99794617  0.87252383  0.44623855
   0.49866682  0.37371198  0.45334788
   0.50291643  0.37248097  0.94641199
   0.13680951  0.19917776  0.21426788
   0.11298277  0.58251910  0.29947076
   0.66297880  0.12646641  0.68797663
   0.38721885  0.08251834  0.79981821
   0.83707617  0.62654024  0.18742667
   0.86327478  0.54699761  0.18498987
   0.36317884  0.69918607  0.71529810
   0.90772691  0.08418264  0.09695734
   0.09226487  0.66198652  0.30212604
   0.88712037  0.16364195  0.09970180
   0.33698158  0.61965093  0.71260014
   0.61266583  0.66351224  0.60106756
   0.59211357  0.58405520  0.59813990
   0.40781496  0.16197879  0.80253074
   0.63685395  0.04693396  0.68549706
   0.16306995  0.11967113  0.21170475
   0.91103940  0.41282058  0.98300356
   0.09067143  0.33342680  0.41652357
   0.47332758  0.47298257  0.86181909
   0.28675915  0.79066230  0.49304437
   0.16748191  0.95938524  0.94262990
   0.21399434  0.29064940  0.99247800
   0.71450106  0.95564132  0.90721656
   0.83437257  0.78676915  0.45658750
   0.02780538  0.97296989  0.36141877
   0.78692702  0.45553280  0.40718358
   0.66589636  0.28673823  0.95687349
   0.58943371  0.91263368  0.48253079
   0.52875884  0.27319935  0.53842034
   0.33337151  0.45927447  0.44286147
   0.41077819  0.83334121  0.91727883
   0.97248948  0.77318993  0.03808703
   0.80213742  0.90156829  0.09441014
   0.76121705  0.88745063  0.27675660
   0.93318223  0.82575106  0.82861787
   0.69913638  0.40154395  0.59466943
   0.61144818  0.32989410  0.14444774
   0.23929565  0.85862427  0.12287493
   0.73967911  0.38752387  0.77717820
   0.56812326  0.32573467  0.32898836
   0.38920888  0.41617015  0.25531876
   0.19869824  0.84462485  0.30535581
   0.11163708  0.91622370  0.75525813
   0.26195671  0.35863763  0.62256507
   0.88951437  0.82993126  0.64408645
   0.06753155  0.92042090  0.57080736
   0.30229610  0.34460141  0.80507461
   0.43346933  0.42040051  0.07093927
   0.54493414  0.99324142  0.22211453
   0.92100667  0.71591876  0.74696483
   0.95598363  0.49327744  0.72203066
   0.57949078  0.21588696  0.24739602
   0.45588176  0.75285398  0.17847337
   0.42108923  0.53020218  0.15294536
   0.07969444  0.03025067  0.65234183
   0.04484779  0.25293321  0.67736727
   0.45473658  0.00723417  0.91770067
   0.59513586  0.98160447  0.53613113
   0.03908715  0.72668997  0.44629475
   0.90553668  0.48171706  0.03604816
   0.46093799  0.22665627  0.94676786
   0.54539712  0.73883928  0.48307530
   0.04554752  0.50723673  0.41750435
   0.62333123  0.20276083  0.56019612
   0.37790327  0.54332529  0.84011560
   0.40554104  0.76443805  0.86445684
   0.96170687  0.01946739  0.95298827
   0.09527845  0.26449006  0.36336981
   0.87672671  0.70281628  0.05964600
   0.12263312  0.04333535  0.33946403
   0.95449524  0.23897319  0.98170662
   0.53883136  0.51936566  0.45377236
 
 position of ions in cartesian coordinates  (Angst):
   4.56083249 29.69197389  2.50691361
   4.12334497 29.13509201  4.62297696
   6.07473745 25.20661675  8.38152797
   5.12123573 14.14415872  5.02596102
   4.06408462  9.23379968  1.37936139
   2.32773637 26.22017959  2.34645580
   5.55377437 13.59212160  7.14416959
   3.60497388  9.16368955  3.55642011
   2.38524387 14.53275874  3.28036268
   1.89376233 25.66889326  4.46458138
   0.84049686 30.57635710  8.10711573
   0.90260553 10.67476992  4.86052681
   5.61306689 25.27754941  6.20484519
   0.37390192 30.64754314  5.93149500
   1.33266029 10.12151304  6.97896198
   2.85439350 14.60585997  1.10563546
   3.15914660  0.69338682  0.51238589
   3.68612615  0.42208485  2.92601981
   6.36921143 22.45283779  5.89169461
   5.99207524 16.46691579  7.75250975
   3.30679417  6.40929638  1.06728721
   3.29286862 23.07434745  4.15376583
   0.06794835 16.73545101  5.33923598
   3.88729819  6.15631895  3.47457391
   2.56515006 18.10742349  8.53537431
   2.76774467 23.34531959  1.73978874
   0.08119834  1.81265203  6.11062922
   0.45907217  7.79986909  4.25073896
   5.78730448 22.19995811  8.29881409
   0.65934190  2.06509296  3.70256315
   6.38135996  7.53143940  6.66333136
   3.14482947 17.35781376  3.59695868
   3.13184772  2.14853545  0.70579746
   3.74534055  1.89090773  3.04772809
   6.42776996 20.98976184  5.78111175
   5.93248576 17.93547178  7.87333237
   3.24950191  4.94610329  0.95625931
   3.32092327 21.61883612  3.96013367
   0.09499835 18.19072404  5.53206671
   3.87575101  4.70025031  3.30176633
   2.57570895 19.56333539  8.70895244
   2.70799844 21.87676394  1.61817624
   0.02099469  3.27580364  6.22056827
   0.51715782  6.33084468  4.12946479
   5.79996767 20.74420435  8.12623477
   0.64812996  3.52128319  3.87528190
   6.35387450  6.07561389  6.47051916
   3.20480756 18.82088967  3.70776322
   2.77825546  3.46988635  6.99993968
   4.00236359  2.47469161  4.27765394
   0.38287272 20.40962681  4.59164436
   5.67451733 18.02384908  1.75583638
   2.84028760  4.86326575  7.11271076
   3.67041958 20.79240388  5.01276181
   0.44524349 19.01632477  4.47894157
   4.07589794  3.87119944  4.39075069
   2.37222284 20.39286040  7.62095737
   2.44577768 21.78924464  7.73507867
   6.06497651  3.85584455  7.40959966
   0.77618816  5.74678492  2.90013831
   5.60032182 19.42010481  1.86865012
   0.85029328  4.35035800  2.78674427
   6.00231865  5.24934780  7.52247628
   3.60903989 19.39886747  4.89900073
   3.92626115 30.15172523  3.67978771
   5.85290212 24.39043893  7.26062536
   5.75294345 14.60665051  6.19898612
   3.82444265  8.34701818  2.43541122
   2.52699471 25.20593234  3.29239802
   2.62896753 15.42105156  2.22663121
   0.59778948 31.46367796  7.05208396
   0.70129352  9.65989231  5.80514962
   3.50883598  2.71675526  1.93290767
   6.10698073 20.16997989  6.88129554
   6.16959333 18.76074799  6.75842060
   3.57087934  4.12613843  2.05629295
   2.94585582 21.05069252  2.73234635
   2.88449335 19.64140500  2.60789194
   0.34173871  4.09583346  5.12039825
   0.27980309  5.50528099  5.24417457
   0.01310940 28.07102441  9.02010166
   6.43568996 27.78463496  5.29262205
   3.21537811 12.03053443  4.19324887
   3.24152093 12.23598858  7.81272103
   0.88174629  6.39816471  2.03400707
   0.72716436 18.54959532  3.54522220
   4.27525297  4.33690841  5.34589151
   2.49595639  3.00361924  6.06622138
   5.39890971 19.88582350  2.82329628
   5.56807099 17.37201179  2.62168954
   2.34004699 22.44141835  6.86938187
   5.85585922  2.70874486  0.90614430
   0.59336173 21.06114850  3.74825695
   5.72277478  5.22008649  1.10981547
   2.17117404 19.92762837  6.66590616
   3.94998160 21.25832998  5.94764601
   3.81752814 18.74690256  5.74265968
   2.62869323  5.51504807  6.26963514
   4.10684660  1.82331180  5.14402637
   1.05130676  3.88542753  1.83155532
   5.87438693 13.52906189  8.17444708
   0.58333569 10.73906546  3.82993854
   3.05067740 15.36873433  7.42336303
   1.84744296 25.22077171  5.44787897
   1.07647331 30.77310038  9.14048631
   1.37754170  9.67339358  7.96235111
   4.60569594 30.63817818  8.87133675
   5.38050254 25.08061945  5.17071816
   0.17682351 30.91398031  4.90205018
   5.07508736 14.59274031  4.04287223
   4.29311161  9.53293819  7.69146970
   3.79998782 29.06897063  5.65212313
   3.40946661  8.89767869  4.58610415
   2.14884998 14.72787483  4.31390234
   2.64638956 26.77936992  8.66301857
   6.27267715 24.44451094  2.06474170
   5.17328053 28.52744695  2.77509256
   4.90883230 28.17178192  4.08213221
   6.01695066 26.49652366  7.99381611
   4.50830645 12.98006713  5.29562271
   3.94386601 10.49349693  1.82264143
   1.54207359 27.18408970  2.88538712
   4.76942135 12.62769778  6.60402983
   3.66388237 10.45348257  3.16879871
   2.50964535 13.27342234  2.83653574
   1.27970836 26.83222675  4.19368714
   0.71674438 29.31674314  7.66431238
   1.68781691 11.63782358  5.40174541
   5.73569551 26.53705677  6.64782815
   0.43266532 29.35785235  6.31895644
   1.94762004 11.28494466  6.71012102
   2.79566412 13.31575853  1.49172538
   3.51343522 31.48614379  3.92513904
   5.93879451 22.98658362  7.14031916
   6.16488768 15.94133869  6.44297000
   3.73761557  6.94312438  2.31569762
   2.93942423 23.87085001  3.04945347
   2.71539720 16.82486574  2.34776046
   0.51241452  1.27897029  4.86226735
   0.28716178  8.32556283  5.56038224
   2.93137187  0.68401714  6.75835406
   3.83652136 31.27423750  6.20517174
   0.24980126 23.17640006  4.95685195
   5.84122072 15.23614720  1.37670351
   2.97093798  7.62968611  7.47860705
   3.51617294 23.57923239  5.25480555
   0.29192270 16.22990489  4.23855266
   4.01966729  6.68356357  4.58335814
   2.43498049 17.57985787  7.42641938
   2.61285387 24.57662561  8.11584401
   6.20200728  1.08876134  7.04553304
   0.61331116  8.53511229  3.28024300
   5.65492029 22.23202737  2.06067034
   0.79022354  1.53732466  2.59388663
   6.15503918  8.03687977  7.76342481
   3.47425689 16.63181827  4.53270184
 


--------------------------------------------------------------------------------------------------------


 k-point  1 :   0.0000 0.0000 0.0000  plane waves:   49723
 k-point  2 :   0.5000 0.0000-0.0000  plane waves:   49754
 k-point  3 :   0.0000-0.0000 0.5000  plane waves:   49688
 k-point  4 :   0.5000-0.0000 0.5000  plane waves:   49784

 maximum and minimum number of plane-waves per node :     12495    12378

 maximum number of plane-waves:     49784
 maximum index in each direction: 
   IXMAX=   12   IYMAX=   63   IZMAX=   14
   IXMIN=  -13   IYMIN=  -63   IZMIN=  -15


 real space projection operators:
  total allocation   :      12566.35 KBytes
  max/ min on nodes  :       3145.27       3136.52


 parallel 3D FFT for wavefunctions:
    minimum data exchange during FFTs selected (reduces bandwidth)
 parallel 3D FFT for charge:
    minimum data exchange during FFTs selected (reduces bandwidth)


 total amount of memory used by VASP MPI-rank0    72688. kBytes
=======================================================================

   base      :      30000. kBytes
   nonlr-proj:       6392. kBytes
   fftplans  :       4039. kBytes
   grid      :      11335. kBytes
   one-center:       1213. kBytes
   wavefun   :      19709. kBytes
 
     INWAV:  cpu time    0.0002: real time    0.0002
 Broyden mixing: mesh for mixing (old mesh)
   NGX = 25   NGY =127   NGZ = 29
  (NGX  = 80   NGY  =384   NGZ  = 96)
  gives a total of  92075 points

 initial charge density was supplied:
 charge density of overlapping atoms calculated
 number of electron     604.0000000 magnetization       0.0000000
 keeping initial charge density in first step


--------------------------------------------------------------------------------------------------------


 Maximum index for non-local projection operator          533
 Maximum index for augmentation-charges          552 (set IRDMAX)


--------------------------------------------------------------------------------------------------------


 First call to EWALD:  gamma=   0.155
 Maximum number of real-space cells 4x 1x 4
 Maximum number of reciprocal cells 2x 7x 2

    FEWALD:  cpu time    0.0165: real time    0.0165


--------------------------------------- Iteration      1(   1)  ---------------------------------------


    POTLOK:  cpu time    0.2114: real time    0.2673
    SETDIJ:  cpu time    0.0691: real time    0.0692
     EDDAV:  cpu time   12.7422: real time   12.9133
       DOS:  cpu time    0.0072: real time    0.0073
    --------------------------------------------
      LOOP:  cpu time   13.0299: real time   13.2572

 eigenvalue-minimisations  :  6144
 total energy-change (2. order) : 0.4507873E+04  (-0.3233618E+05)
 number of electron     604.0000000 magnetization       0.0000000
 augmentation part      604.0000000 magnetization       0.0000000

 Free energy of the ion-electron system (eV)
  ---------------------------------------------------
  alpha Z        PSCENC =      1133.90739223
  Ewald energy   TEWEN  =    -15433.80178444
  -Hartree energ DENC   =    -12305.52043263
  -exchange      EXHF   =         0.00000000
  -V(xc)+E(xc)   XCENC  =      2131.19376458
  PAW double counting   =     22087.95224925   -22402.63741193
  entropy T*S    EENTRO =        -0.03037443
  eigenvalues    EBANDS =       604.99881622
  atomic energy  EATOM  =     28691.81066055
  Solvation  Ediel_sol  =         0.00000000
  ---------------------------------------------------
  free energy    TOTEN  =      4507.87287940 eV

  energy without entropy =     4507.90325382  energy(sigma->0) =     4507.88806661


--------------------------------------------------------------------------------------------------------




--------------------------------------- Iteration      1(   2)  ---------------------------------------


     EDDAV:  cpu time   14.1917: real time   14.2184
       DOS:  cpu time    0.0074: real time    0.0074
    --------------------------------------------
      LOOP:  cpu time   14.1991: real time   14.2257

 eigenvalue-minimisations  :  7264
 total energy-change (2. order) :-0.5263346E+04  (-0.5036256E+04)
 number of electron     604.0000000 magnetization       0.0000000
 augmentation part      604.0000000 magnetization       0.0000000

 Free energy of the ion-electron system (eV)
  ---------------------------------------------------
  alpha Z        PSCENC =      1133.90739223
  Ewald energy   TEWEN  =    -15433.80178444
  -Hartree energ DENC   =    -12305.52043263
  -exchange      EXHF   =         0.00000000
  -V(xc)+E(xc)   XCENC  =      2131.19376458
  PAW double counting   =     22087.95224925   -22402.63741193
  entropy T*S    EENTRO =        -0.02570833
  eigenvalues    EBANDS =     -4658.35194068
  atomic energy  EATOM  =     28691.81066055
  Solvation  Ediel_sol  =         0.00000000
  ---------------------------------------------------
  free energy    TOTEN  =      -755.47321140 eV

  energy without entropy =     -755.44750308  energy(sigma->0) =     -755.46035724


--------------------------------------------------------------------------------------------------------




--------------------------------------- Iteration      1(   3)  ---------------------------------------


     EDDAV:  cpu time   14.0814: real time   14.1008
       DOS:  cpu time    0.0058: real time    0.0058
    --------------------------------------------
      LOOP:  cpu time   14.0872: real time   14.1066

 eigenvalue-minimisations  :  7392
 total energy-change (2. order) :-0.5134960E+03  (-0.5031796E+03)
 number of electron     604.0000000 magnetization       0.0000000
 augmentation part      604.0000000 magnetization       0.0000000

 Free energy of the ion-electron system (eV)
  ---------------------------------------------------
  alpha Z        PSCENC =      1133.90739223
  Ewald energy   TEWEN  =    -15433.80178444
  -Hartree energ DENC   =    -12305.52043263
  -exchange      EXHF   =         0.00000000
  -V(xc)+E(xc)   XCENC  =      2131.19376458
  PAW double counting   =     22087.95224925   -22402.63741193
  entropy T*S    EENTRO =        -0.04979448
  eigenvalues    EBANDS =     -5171.82384609
  atomic energy  EATOM  =     28691.81066055
  Solvation  Ediel_sol  =         0.00000000
  ---------------------------------------------------
  free energy    TOTEN  =     -1268.96920296 eV

  energy without entropy =    -1268.91940848  energy(sigma->0) =    -1268.94430572


--------------------------------------------------------------------------------------------------------




--------------------------------------- Iteration      1(   4)  ---------------------------------------


     EDDAV:  cpu time   14.4278: real time   14.4441
       DOS:  cpu time    0.0083: real time    0.0083
    --------------------------------------------
      LOOP:  cpu time   14.4361: real time   14.4524

 eigenvalue-minimisations  :  7648
 total energy-change (2. order) :-0.1854563E+02  (-0.1831271E+02)
 number of electron     604.0000000 magnetization       0.0000000
 augmentation part      604.0000000 magnetization       0.0000000

 Free energy of the ion-electron system (eV)
  ---------------------------------------------------
  alpha Z        PSCENC =      1133.90739223
  Ewald energy   TEWEN  =    -15433.80178444
  -Hartree energ DENC   =    -12305.52043263
  -exchange      EXHF   =         0.00000000
  -V(xc)+E(xc)   XCENC  =      2131.19376458
  PAW double counting   =     22087.95224925   -22402.63741193
  entropy T*S    EENTRO =        -0.04345900
  eigenvalues    EBANDS =     -5190.37581194
  atomic energy  EATOM  =     28691.81066055
  Solvation  Ediel_sol  =         0.00000000
  ---------------------------------------------------
  free energy    TOTEN  =     -1287.51483333 eV

  energy without entropy =    -1287.47137434  energy(sigma->0) =    -1287.49310384


--------------------------------------------------------------------------------------------------------




--------------------------------------- Iteration      1(   5)  ---------------------------------------


     EDDAV:  cpu time   16.7152: real time   16.7344
       DOS:  cpu time    0.0053: real time    0.0053
    CHARGE:  cpu time    0.5436: real time    0.5452
    MIXING:  cpu time    0.0166: real time    0.0194
    --------------------------------------------
      LOOP:  cpu time   17.2808: real time   17.3042

 eigenvalue-minimisations  :  8864
 total energy-change (2. order) :-0.8184163E+00  (-0.8167442E+00)
 number of electron     604.0000045 magnetization      -0.0000595
 augmentation part       35.8381358 magnetization       0.0004857

 Broyden mixing:
  rms(total) = 0.91441E+01    rms(broyden)= 0.91434E+01
  rms(prec ) = 0.97784E+01
  weight for this iteration     100.00

 Free energy of the ion-electron system (eV)
  ---------------------------------------------------
  alpha Z        PSCENC =      1133.90739223
  Ewald energy   TEWEN  =    -15433.80178444
  -Hartree energ DENC   =    -12305.52043263
  -exchange      EXHF   =         0.00000000
  -V(xc)+E(xc)   XCENC  =      2131.19376458
  PAW double counting   =     22087.95224925   -22402.63741193
  entropy T*S    EENTRO =        -0.04265513
  eigenvalues    EBANDS =     -5191.19503215
  atomic energy  EATOM  =     28691.81066055
  Solvation  Ediel_sol  =         0.00000000
  ---------------------------------------------------
  free energy    TOTEN  =     -1288.33324968 eV

  energy without entropy =    -1288.29059455  energy(sigma->0) =    -1288.31192211


--------------------------------------------------------------------------------------------------------




--------------------------------------- Iteration      1(   6)  ---------------------------------------


    POTLOK:  cpu time    0.1700: real time    0.1704
    SETDIJ:  cpu time    0.0641: real time    0.0640
     EDDAV:  cpu time   19.5593: real time   19.5818
       DOS:  cpu time    0.0055: real time    0.0055
    CHARGE:  cpu time    0.4612: real time    0.4633
    MIXING:  cpu time    0.0070: real time    0.0191
    --------------------------------------------
      LOOP:  cpu time   20.2670: real time   20.3041

 eigenvalue-minimisations  :  9856
 total energy-change (2. order) :-0.2891443E+03  (-0.3357314E+03)
 number of electron     604.0000013 magnetization      -0.0027870
 augmentation part       57.0198297 magnetization       0.2651259

 Broyden mixing:
  rms(total) = 0.25015E+02    rms(broyden)= 0.25014E+02
  rms(prec ) = 0.25351E+02
  weight for this iteration     100.00

 eigenvalues of (default mixing * dielectric matrix)
  average eigenvalue GAMMA=   0.0971
  0.0971

 Free energy of the ion-electron system (eV)
  ---------------------------------------------------
  alpha Z        PSCENC =      1133.90739223
  Ewald energy   TEWEN  =    -15433.80178444
  -Hartree energ DENC   =    -12770.59447372
  -exchange      EXHF   =         0.00000000
  -V(xc)+E(xc)   XCENC  =      2163.30473678
  PAW double counting   =     32875.99382027   -33092.16751275
  entropy T*S    EENTRO =        -0.02001585
  eigenvalues    EBANDS =     -5145.91037726
  atomic energy  EATOM  =     28691.81066055
  Solvation  Ediel_sol  =         0.00000000
  ---------------------------------------------------
  free energy    TOTEN  =     -1577.47755421 eV

  energy without entropy =    -1577.45753835  energy(sigma->0) =    -1577.46754628


--------------------------------------------------------------------------------------------------------




--------------------------------------- Iteration      1(   7)  ---------------------------------------


    POTLOK:  cpu time    0.2548: real time    0.2548
    SETDIJ:  cpu time    0.0639: real time    0.0639
     EDDAV:  cpu time   14.5784: real time   14.5946
       DOS:  cpu time    0.0057: real time    0.0057
    CHARGE:  cpu time    0.4544: real time    0.4552
    MIXING:  cpu time    0.0052: real time    0.0114
    --------------------------------------------
      LOOP:  cpu time   15.3624: real time   15.3856

 eigenvalue-minimisations  :  7360
 total energy-change (2. order) : 0.1038516E+03  (-0.2993677E+02)
 number of electron     604.0000018 magnetization       0.0144472
 augmentation part       55.6216529 magnetization       0.0044935

 Broyden mixing:
  rms(total) = 0.16511E+02    rms(broyden)= 0.16511E+02
  rms(prec ) = 0.16872E+02
  weight for this iteration     100.00

 eigenvalues of (default mixing * dielectric matrix)
  average eigenvalue GAMMA=   0.4513
  0.4513  0.4513

 Free energy of the ion-electron system (eV)
  ---------------------------------------------------
  alpha Z        PSCENC =      1133.90739223
  Ewald energy   TEWEN  =    -15433.80178444
  -Hartree energ DENC   =    -12841.34722198
  -exchange      EXHF   =         0.00000000
  -V(xc)+E(xc)   XCENC  =      2166.44494598
  PAW double counting   =     34284.57542490   -34528.04022994
  entropy T*S    EENTRO =        -0.02372382
  eigenvalues    EBANDS =     -4947.15143030
  atomic energy  EATOM  =     28691.81066055
  Solvation  Ediel_sol  =         0.00000000
  ---------------------------------------------------
  free energy    TOTEN  =     -1473.62596682 eV

  energy without entropy =    -1473.60224299  energy(sigma->0) =    -1473.61410491


--------------------------------------------------------------------------------------------------------




--------------------------------------- Iteration      1(   8)  ---------------------------------------


    POTLOK:  cpu time    0.1686: real time    0.1686
    SETDIJ:  cpu time    0.0635: real time    0.0635
     EDDAV:  cpu time   18.7620: real time   18.7838
       DOS:  cpu time    0.0059: real time    0.0059
    CHARGE:  cpu time    0.4535: real time    0.4539
    MIXING:  cpu time    0.0050: real time    0.0076
    --------------------------------------------
      LOOP:  cpu time   19.4585: real time   19.4834

 eigenvalue-minimisations  :  9408
 total energy-change (2. order) : 0.2869967E+03  (-0.5315645E+02)
 number of electron     604.0000021 magnetization       0.0158416
 augmentation part       52.3998181 magnetization      -0.0564549

 Broyden mixing:
  rms(total) = 0.60116E+01    rms(broyden)= 0.60113E+01
  rms(prec ) = 0.71351E+01
  weight for this iteration     100.00

 eigenvalues of (default mixing * dielectric matrix)
  average eigenvalue GAMMA=   0.4911
  0.5604  0.5604  0.3525

 Free energy of the ion-electron system (eV)
  ---------------------------------------------------
  alpha Z        PSCENC =      1133.90739223
  Ewald energy   TEWEN  =    -15433.80178444
  -Hartree energ DENC   =    -13054.52990774
  -exchange      EXHF   =         0.00000000
  -V(xc)+E(xc)   XCENC  =      2179.77663715
  PAW double counting   =     39898.74758453   -40229.15289731
[...]
      5.07509     14.59274      4.04287        -0.000859     -0.002726      0.001424
      4.29311      9.53294      7.69147        -0.000807     -0.002821     -0.000454
      3.79999     29.06897      5.65212        -0.000145     -0.000175      0.000910
      3.40947      8.89768      4.58610        -0.000383     -0.001264      0.001405
      2.14885     14.72787      4.31390         0.000585      0.002797      0.003510
      2.64639     26.77937      8.66302         0.001354     -0.000880      0.001907
      6.27268     24.44451      2.06474        -0.000824      0.002204     -0.006395
      5.17328     28.52745      2.77509        -0.002406     -0.001351      0.000133
      4.90883     28.17178      4.08213        -0.000927      0.001537     -0.005892
      6.01695     26.49652      7.99382         0.000348     -0.003872     -0.000225
      4.50831     12.98007      5.29562         0.001055      0.002961     -0.004495
      3.94387     10.49350      1.82264        -0.003715     -0.000452     -0.004073
      1.54207     27.18409      2.88539        -0.000628     -0.001197      0.002291
      4.76942     12.62770      6.60403         0.001453     -0.001112      0.000124
      3.66388     10.45348      3.16880         0.000431      0.000216     -0.001389
      2.50965     13.27342      2.83654        -0.000529      0.008668      0.000673
      1.27971     26.83223      4.19369         0.003480     -0.000058     -0.002285
      0.71674     29.31674      7.66431        -0.000270      0.006715     -0.004262
      1.68782     11.63782      5.40175        -0.005246      0.002212     -0.002243
      5.73570     26.53706      6.64783         0.000678     -0.001765      0.006417
      0.43267     29.35785      6.31896        -0.001042      0.000119      0.000273
      1.94762     11.28494      6.71012         0.000808     -0.001076      0.005716
      2.79566     13.31576      1.49173        -0.001984     -0.000492     -0.002799
      3.51344     31.48614      3.92514        -0.003512     -0.005140     -0.001190
      5.93879     22.98658      7.14032         0.000101     -0.000495     -0.002588
      6.16489     15.94134      6.44297         0.004294      0.000137     -0.000684
      3.73762      6.94312      2.31570         0.000936     -0.003500     -0.000487
      2.93942     23.87085      3.04945         0.002029      0.000186     -0.001815
      2.71540     16.82487      2.34776        -0.001613     -0.001124     -0.000123
      0.51241      1.27897      4.86227        -0.000178     -0.002716     -0.000668
      0.28716      8.32556      5.56038        -0.001533      0.001320      0.001787
      2.93137      0.68402      6.75835         0.003597     -0.005154     -0.005275
      3.83652     31.27424      6.20517        -0.000470      0.000487      0.003472
      0.24980     23.17640      4.95685         0.000465     -0.001821     -0.000040
      5.84122     15.23615      1.37670         0.004166     -0.000175     -0.003806
      2.97094      7.62969      7.47861        -0.001180      0.001740     -0.001473
      3.51617     23.57923      5.25481         0.002139      0.003003     -0.002127
      0.29192     16.22990      4.23855        -0.002466      0.001038      0.007310
      4.01967      6.68356      4.58336         0.000581      0.003636      0.003330
      2.43498     17.57986      7.42642        -0.004676      0.000738     -0.003430
      2.61285     24.57663      8.11584         0.000307      0.000317     -0.001195
      6.20201      1.08876      7.04553        -0.004426     -0.000909      0.006112
      0.61331      8.53511      3.28024         0.000034      0.004842     -0.001814
      5.65492     22.23203      2.06067         0.000810     -0.000594      0.001046
      0.79022      1.53732      2.59389         0.001490     -0.005342     -0.004178
      6.15504      8.03688      7.76342        -0.001395      0.002748      0.002791
      3.47426     16.63182      4.53270        -0.000511      0.000491      0.000295
 -----------------------------------------------------------------------------------
    total drift:                                0.006861     -0.024095      0.017949


--------------------------------------------------------------------------------------------------------



  FREE ENERGIE OF THE ION-ELECTRON SYSTEM (eV)
  ---------------------------------------------------
  free  energy   TOTEN  =     -1178.33625133 eV

  energy  without entropy=    -1178.30359441  energy(sigma->0) =    -1178.31992287
 


--------------------------------------------------------------------------------------------------------


    POTLOK:  cpu time    0.2954: real time    0.2954


--------------------------------------------------------------------------------------------------------




--------------------------------------------------------------------------------------------------------


  
 reached required accuracy - stopping structural energy minimisation
 writing wavefunctions
     LOOP+:  cpu time  988.6244: real time  996.3547
    4ORBIT:  cpu time    0.0000: real time    0.0000
 


 total charge     
 
# of ion       s       p       d       tot
------------------------------------------
    1        0.872   1.767   0.000   2.638
    2        0.871   1.765   0.000   2.636
    3        0.869   1.768   0.000   2.637
    4        0.872   1.767   0.000   2.638
    5        0.876   1.778   0.000   2.654
    6        0.871   1.764   0.000   2.636
    7        0.871   1.765   0.000   2.636
    8        0.869   1.768   0.000   2.637
    9        0.876   1.778   0.000   2.654
   10        0.871   1.767   0.000   2.638
   11        0.876   1.778   0.000   2.654
   12        0.871   1.765   0.000   2.636
   13        0.876   1.779   0.000   2.654
   14        0.869   1.768   0.000   2.637
   15        0.871   1.766   0.000   2.638
   16        0.869   1.768   0.000   2.637
   17        0.865   1.731   0.000   2.596
   18        0.863   1.723   0.000   2.587
   19        0.864   1.724   0.000   2.588
   20        0.863   1.723   0.000   2.587
   21        0.864   1.724   0.000   2.588
   22        0.865   1.731   0.000   2.596
   23        0.865   1.731   0.000   2.596
   24        0.864   1.729   0.000   2.593
   25        0.864   1.729   0.000   2.593
   26        0.863   1.723   0.000   2.587
   27        0.864   1.724   0.000   2.588
   28        0.863   1.723   0.000   2.587
   29        0.864   1.730   0.000   2.594
   30        0.864   1.729   0.000   2.593
   31        0.865   1.731   0.000   2.596
   32        0.864   1.724   0.000   2.588
   33        0.872   1.806   0.000   2.677
   34        0.870   1.797   0.000   2.667
   35        0.871   1.807   0.000   2.678
   36        0.870   1.797   0.000   2.668
   37        0.871   1.807   0.000   2.678
   38        0.872   1.805   0.000   2.677
   39        0.872   1.806   0.000   2.677
   40        0.870   1.813   0.000   2.683
   41        0.870   1.813   0.000   2.683
   42        0.870   1.797   0.000   2.668
   43        0.871   1.807   0.000   2.678
   44        0.870   1.797   0.000   2.667
   45        0.870   1.813   0.000   2.683
   46        0.870   1.813   0.000   2.683
   47        0.872   1.805   0.000   2.677
   48        0.871   1.807   0.000   2.678
   49        0.877   1.787   0.000   2.664
   50        0.874   1.780   0.000   2.654
   51        0.875   1.783   0.000   2.658
   52        0.874   1.780   0.000   2.654
   53        0.875   1.782   0.000   2.658
   54        0.877   1.787   0.000   2.664
   55        0.877   1.787   0.000   2.664
   56        0.877   1.783   0.000   2.661
   57        0.877   1.783   0.000   2.661
   58        0.874   1.780   0.000   2.654
   59        0.875   1.783   0.000   2.658
   60        0.874   1.780   0.000   2.654
   61        0.877   1.784   0.000   2.661
   62        0.877   1.783   0.000   2.661
   63        0.877   1.787   0.000   2.664
   64        0.875   1.782   0.000   2.658
   65        0.846   1.786   0.000   2.632
   66        0.848   1.798   0.000   2.646
   67        0.846   1.786   0.000   2.633
   68        0.848   1.798   0.000   2.646
   69        0.846   1.786   0.000   2.632
   70        0.848   1.798   0.000   2.646
   71        0.848   1.798   0.000   2.645
   72        0.846   1.786   0.000   2.632
   73        0.871   1.816   0.000   2.687
   74        0.872   1.815   0.000   2.687
   75        0.872   1.816   0.000   2.688
   76        0.872   1.815   0.000   2.687
   77        0.872   1.816   0.000   2.688
   78        0.872   1.815   0.000   2.687
   79        0.872   1.815   0.000   2.686
   80        0.871   1.816   0.000   2.687
   81        0.408   0.515   7.153   8.077
   82        0.409   0.516   7.154   8.079
   83        0.408   0.516   7.151   8.075
   84        0.408   0.516   7.150   8.074
   85        0.634   0.051   0.000   0.685
   86        0.651   0.052   0.000   0.703
   87        0.650   0.053   0.000   0.703
   88        0.651   0.052   0.000   0.703
   89        0.650   0.053   0.000   0.703
   90        0.634   0.051   0.000   0.685
   91        0.634   0.051   0.000   0.685
   92        0.638   0.051   0.000   0.689
   93        0.638   0.051   0.000   0.689
   94        0.651   0.052   0.000   0.703
   95        0.650   0.053   0.000   0.703
   96        0.651   0.052   0.000   0.703
   97        0.638   0.051   0.000   0.689
   98        0.638   0.051   0.000   0.689
   99        0.634   0.051   0.000   0.685
  100        0.650   0.053   0.000   0.703
  101        0.637   0.051   0.000   0.689
  102        0.637   0.051   0.000   0.689
  103        0.638   0.051   0.000   0.689
  104        0.635   0.052   0.000   0.686
  105        0.642   0.052   0.000   0.694
  106        0.635   0.052   0.000   0.686
  107        0.635   0.052   0.000   0.686
  108        0.642   0.052   0.000   0.694
  109        0.638   0.051   0.000   0.689
  110        0.635   0.052   0.000   0.686
  111        0.642   0.052   0.000   0.694
  112        0.637   0.051   0.000   0.689
  113        0.638   0.051   0.000   0.689
  114        0.642   0.052   0.000   0.694
  115        0.637   0.051   0.000   0.689
  116        0.638   0.051   0.000   0.689
  117        1.236   2.609   0.000   3.845
  118        1.242   2.588   0.000   3.830
  119        1.235   2.613   0.000   3.848
  120        1.236   2.609   0.000   3.845
  121        1.239   2.609   0.000   3.848
  122        1.242   2.589   0.000   3.831
  123        1.242   2.588   0.000   3.830
  124        1.235   2.613   0.000   3.847
  125        1.239   2.609   0.000   3.848
  126        1.236   2.609   0.000   3.845
  127        1.239   2.609   0.000   3.848
  128        1.242   2.589   0.000   3.830
  129        1.239   2.609   0.000   3.848
  130        1.235   2.613   0.000   3.848
  131        1.236   2.608   0.000   3.845
  132        1.235   2.613   0.000   3.848
  133        1.211   2.728   0.000   3.939
  134        1.212   2.727   0.000   3.939
  135        1.211   2.728   0.000   3.939
  136        1.212   2.727   0.000   3.939
  137        1.211   2.727   0.000   3.939
  138        1.212   2.727   0.000   3.939
  139        1.212   2.726   0.000   3.939
  140        1.211   2.727   0.000   3.938
  141        1.587   3.550   0.000   5.137
  142        1.588   3.542   0.000   5.130
  143        1.586   3.547   0.000   5.133
  144        1.588   3.542   0.000   5.130
  145        1.586   3.547   0.000   5.133
  146        1.587   3.550   0.000   5.137
  147        1.587   3.550   0.000   5.137
  148        1.585   3.550   0.000   5.135
  149        1.585   3.550   0.000   5.135
  150        1.588   3.542   0.000   5.130
  151        1.586   3.547   0.000   5.133
  152        1.588   3.542   0.000   5.130
  153        1.585   3.550   0.000   5.135
  154        1.585   3.550   0.000   5.135
  155        1.587   3.550   0.000   5.137
  156        1.586   3.547   0.000   5.133
--------------------------------------------------
tot        146.482 266.198  28.608 441.289
 


 magnetization (x)
 
# of ion       s       p       d       tot
------------------------------------------
    1        0.003   0.024   0.000   0.026
    2        0.003   0.023   0.000   0.026
    3        0.003   0.017   0.000   0.020
    4       -0.003  -0.024   0.000  -0.026
    5       -0.003  -0.019   0.000  -0.022
    6        0.003   0.023   0.000   0.026
    7       -0.003  -0.023   0.000  -0.026
    8       -0.003  -0.017   0.000  -0.020
    9       -0.003  -0.019   0.000  -0.022
   10        0.003   0.023   0.000   0.026
   11        0.003   0.019   0.000   0.022
   12       -0.003  -0.023   0.000  -0.026
   13        0.003   0.019   0.000   0.022
   14        0.003   0.017   0.000   0.020
   15       -0.003  -0.023   0.000  -0.026
   16       -0.003  -0.018   0.000  -0.021
   17        0.000   0.001   0.000   0.001
   18        0.000   0.001   0.000   0.001
   19        0.000   0.001   0.000   0.001
   20       -0.000  -0.001   0.000  -0.001
   21       -0.000  -0.001   0.000  -0.001
   22        0.000   0.001   0.000   0.001
   23       -0.000  -0.001   0.000  -0.001
   24       -0.000  -0.001   0.000  -0.001
   25       -0.000  -0.001   0.000  -0.001
   26        0.000   0.001   0.000   0.001
   27        0.000   0.001   0.000   0.001
   28       -0.000  -0.001   0.000  -0.001
   29        0.000   0.001   0.000   0.001
   30        0.000   0.001   0.000   0.001
   31       -0.000  -0.001   0.000  -0.001
   32       -0.000  -0.001   0.000  -0.001
   33       -0.000  -0.000   0.000  -0.000
   34       -0.000  -0.000   0.000  -0.000
   35       -0.000  -0.000   0.000  -0.000
   36        0.000   0.000   0.000   0.000
   37        0.000   0.000   0.000   0.000
   38       -0.000  -0.000   0.000  -0.000
   39        0.000   0.000   0.000   0.000
   40        0.000   0.000   0.000   0.000
   41        0.000   0.000   0.000   0.000
   42       -0.000  -0.000   0.000  -0.000
   43       -0.000  -0.000   0.000  -0.000
   44        0.000   0.000   0.000   0.000
   45       -0.000  -0.000   0.000  -0.000
   46       -0.000  -0.000   0.000  -0.000
   47        0.000   0.000   0.000   0.000
   48        0.000   0.000   0.000   0.000
   49        0.000   0.000   0.000   0.000
   50        0.000   0.000   0.000   0.000
   51        0.000   0.000   0.000   0.000
   52       -0.000  -0.000   0.000  -0.000
   53       -0.000  -0.000   0.000  -0.000
   54        0.000   0.000   0.000   0.000
   55       -0.000  -0.000   0.000  -0.000
   56       -0.000  -0.000   0.000  -0.000
   57       -0.000  -0.000   0.000  -0.000
   58        0.000   0.000   0.000   0.000
   59        0.000   0.000   0.000   0.000
   60       -0.000  -0.000   0.000  -0.000
   61        0.000   0.000   0.000   0.000
   62        0.000   0.000   0.000   0.000
   63       -0.000  -0.000   0.000  -0.000
   64       -0.000  -0.000   0.000  -0.000
   65        0.002   0.010   0.000   0.011
   66        0.002   0.011   0.000   0.013
   67       -0.002  -0.010   0.000  -0.011
   68       -0.002  -0.011   0.000  -0.013
   69        0.002   0.010   0.000   0.011
   70       -0.002  -0.011   0.000  -0.013
   71        0.002   0.011   0.000   0.013
   72       -0.002  -0.010   0.000  -0.011
   73        0.000   0.000   0.000   0.000
   74        0.000   0.000   0.000   0.000
   75       -0.000  -0.000   0.000  -0.000
   76       -0.000  -0.000   0.000  -0.000
   77        0.000   0.000   0.000   0.000
   78       -0.000  -0.000   0.000  -0.000
   79        0.000   0.000   0.000   0.000
   80       -0.000  -0.000   0.000  -0.000
   81        0.013   0.079   2.360   2.452
   82        0.013   0.079   2.360   2.452
   83       -0.013  -0.079  -2.363  -2.455
   84       -0.013  -0.079  -2.364  -2.456
   85       -0.000  -0.000   0.000  -0.000
   86        0.000  -0.000   0.000   0.000
   87        0.000  -0.000   0.000   0.000
   88       -0.000   0.000   0.000  -0.000
   89       -0.000   0.000   0.000  -0.000
   90       -0.000  -0.000   0.000  -0.000
   91        0.000   0.000   0.000   0.000
   92       -0.000   0.000   0.000  -0.000
   93       -0.000   0.000   0.000  -0.000
   94        0.000  -0.000   0.000   0.000
   95        0.000  -0.000   0.000   0.000
   96       -0.000   0.000   0.000  -0.000
   97        0.000  -0.000   0.000   0.000
   98        0.000  -0.000   0.000   0.000
   99        0.000   0.000   0.000   0.000
  100       -0.000   0.000   0.000  -0.000
  101       -0.001  -0.000   0.000  -0.001
  102       -0.001  -0.000   0.000  -0.001
  103       -0.001  -0.000   0.000  -0.001
  104        0.000   0.000   0.000   0.001
  105        0.001   0.000   0.000   0.001
  106       -0.000  -0.000   0.000  -0.001
  107        0.000   0.000   0.000   0.001
  108        0.001   0.000   0.000   0.001
  109        0.001   0.000   0.000   0.001
  110       -0.000  -0.000   0.000  -0.001
  111       -0.001  -0.000   0.000  -0.001
  112        0.001   0.000   0.000   0.001
  113       -0.001  -0.000   0.000  -0.001
  114       -0.001  -0.000   0.000  -0.001
  115        0.001   0.000   0.000   0.001
  116        0.001   0.000   0.000   0.001
  117        0.012   0.046   0.000   0.058
  118        0.014   0.049   0.000   0.062
  119        0.013   0.050   0.000   0.063
  120       -0.012  -0.046   0.000  -0.058
  121       -0.015  -0.051   0.000  -0.066
  122        0.014   0.048   0.000   0.062
  123       -0.014  -0.049   0.000  -0.062
  124       -0.013  -0.050   0.000  -0.063
  125       -0.015  -0.051   0.000  -0.066
  126        0.012   0.046   0.000   0.058
  127        0.015   0.051   0.000   0.066
  128       -0.014  -0.049   0.000  -0.063
  129        0.015   0.051   0.000   0.066
  130        0.013   0.050   0.000   0.063
  131       -0.012  -0.046   0.000  -0.058
  132       -0.013  -0.050   0.000  -0.063
  133        0.000   0.001   0.000   0.001
  134        0.000   0.000   0.000   0.001
  135       -0.000  -0.001   0.000  -0.001
  136       -0.000  -0.000   0.000  -0.001
  137        0.000   0.001   0.000   0.001
  138       -0.000  -0.000   0.000  -0.001
  139        0.000   0.000   0.000   0.001
  140       -0.000  -0.001   0.000  -0.001
  141        0.000   0.001   0.000   0.001
  142        0.000   0.002   0.000   0.002
  143        0.000   0.002   0.000   0.002
  144       -0.000  -0.002   0.000  -0.002
  145       -0.000  -0.002   0.000  -0.002
  146        0.000   0.001   0.000   0.001
  147       -0.000  -0.001   0.000  -0.001
  148       -0.000  -0.001   0.000  -0.001
  149       -0.000  -0.001   0.000  -0.001
  150        0.000   0.002   0.000   0.002
  151        0.000   0.002   0.000   0.002
  152       -0.000  -0.002   0.000  -0.002
  153        0.000   0.001   0.000   0.001
  154        0.000   0.001   0.000   0.001
  155       -0.000  -0.001   0.000  -0.001
  156       -0.000  -0.002   0.000  -0.002
--------------------------------------------------
tot         -0.000  -0.002  -0.007  -0.009
 

 total amount of memory used by VASP MPI-rank0    72688. kBytes
=======================================================================

   base      :      30000. kBytes
   nonlr-proj:       6392. kBytes
   fftplans  :       4039. kBytes
   grid      :      11335. kBytes
   one-center:       1213. kBytes
   wavefun   :      19709. kBytes
 
  
  
 General timing and accounting informations for this job:
 ========================================================
  
                  Total CPU time used (sec):     1117.779
                            User time (sec):     1050.908
                          System time (sec):       66.871
                         Elapsed time (sec):     1133.633
  
                   Maximum memory used (kb):     1047496.
                   Average memory used (kb):           0.
  
                          Minor page faults:        44283
                          Major page faults:            9
                 Voluntary context switches:        13918
