       N       E                     dE             d eps       ncg     rms          rms(c)
DAV:   1     0.572211481737E+04    0.57221E+04   -0.25923E+05  3072   0.140E+03
DAV:   2    -0.187075297701E+03   -0.59092E+04   -0.56951E+04  4576   0.315E+02
DAV:   3    -0.125528684060E+04   -0.10682E+04   -0.10590E+04  3744   0.141E+02
DAV:   4    -0.130077339801E+04   -0.45487E+02   -0.45141E+02  4544   0.437E+01
DAV:   5    -0.130158341427E+04   -0.81002E+00   -0.80489E+00  3936   0.453E+00
DAV:   6    -0.130163532351E+04   -0.51909E-01   -0.51824E-01  4896   0.139E+00
DAV:   7    -0.130163628434E+04   -0.96083E-03   -0.95876E-03  3968   0.130E-01
DAV:   8    -0.130163632949E+04   -0.45148E-04   -0.45122E-04  5024   0.322E-02    0.959E+01
DAV:   9    -0.162476334130E+04   -0.32313E+03   -0.38881E+03  4736   0.813E+01    0.327E+02
DAV:  10    -0.152526557631E+04    0.99498E+02   -0.30317E+02  3648   0.318E+01    0.207E+02
DAV:  11    -0.118588799016E+04    0.33938E+03   -0.51218E+02  4224   0.824E+01    0.730E+01
DAV:  12    -0.116205394825E+04    0.23834E+02   -0.71330E+02  4416   0.489E+01    0.427E+01
DAV:  13    -0.115837911802E+04    0.36748E+01   -0.14175E+02  4064   0.142E+01    0.282E+01
DAV:  14    -0.117734325425E+04   -0.18964E+02   -0.15465E+02  4448   0.198E+01    0.629E+01
DAV:  15    -0.117426483799E+04    0.30784E+01   -0.27337E+02  4480   0.250E+01    0.452E+01
DAV:  16    -0.116933292119E+04    0.49319E+01   -0.62731E+01  4416   0.163E+01    0.333E+01
DAV:  17    -0.116964096664E+04   -0.30805E+00   -0.66967E+01  4576   0.102E+01    0.228E+01
DAV:  18    -0.117091828782E+04   -0.12773E+01   -0.56741E+00  4256   0.638E+00    0.191E+01
DAV:  19    -0.117179714367E+04   -0.87886E+00   -0.21109E+00  4000   0.288E+00    0.164E+01
DAV:  20    -0.117282523829E+04   -0.10281E+01   -0.14375E+00  4192   0.285E+00    0.135E+01
DAV:  21    -0.117370865392E+04   -0.88342E+00   -0.17850E+00  4096   0.323E+00    0.130E+01
DAV:  22    -0.117360260165E+04    0.10605E+00   -0.18410E+00  4416   0.471E+00    0.100E+01
DAV:  23    -0.117369359492E+04   -0.90993E-01   -0.14665E+00  4224   0.359E+00    0.837E+00
DAV:  24    -0.117414658084E+04   -0.45299E+00   -0.60798E-01  4256   0.156E+00    0.111E+01
DAV:  25    -0.117412581426E+04    0.20767E-01   -0.27110E-02  4096   0.443E-01    0.111E+01
DAV:  26    -0.117413571828E+04   -0.99040E-02   -0.72809E-03  4384   0.280E-01    0.120E+01
DAV:  27    -0.117423223244E+04   -0.96514E-01   -0.38815E-01  4320   0.152E+00    0.939E+00
DAV:  28    -0.117429157075E+04   -0.59338E-01   -0.47945E-01  4064   0.213E+00    0.487E+00
DAV:  29    -0.117453839967E+04   -0.24683E+00   -0.36994E-01  3840   0.138E+00    0.553E+00
DAV:  30    -0.117454197788E+04   -0.35782E-02   -0.64117E-01  4032   0.173E+00    0.655E+00
DAV:  31    -0.117445903641E+04    0.82941E-01   -0.46502E-01  4224   0.140E+00    0.427E+00
DAV:  32    -0.117458563526E+04   -0.12660E+00   -0.10335E-01  4288   0.980E-01    0.281E+00
DAV:  33    -0.117459858288E+04   -0.12948E-01   -0.67666E-02  4128   0.607E-01    0.292E+00
DAV:  34    -0.117462221470E+04   -0.23632E-01   -0.31626E-02  4096   0.417E-01    0.255E+00
DAV:  35    -0.117460634558E+04    0.15869E-01   -0.59310E-02  4224   0.462E-01    0.184E+00
DAV:  36    -0.117465221307E+04   -0.45867E-01   -0.26235E-02  4224   0.314E-01    0.164E+00
DAV:  37    -0.117467408734E+04   -0.21874E-01   -0.13533E-02  4128   0.221E-01    0.130E+00
DAV:  38    -0.117468660504E+04   -0.12518E-01   -0.31105E-02  4224   0.279E-01    0.102E+00
DAV:  39    -0.117469394164E+04   -0.73366E-02   -0.22899E-02  4224   0.326E-01    0.992E-01
DAV:  40    -0.117469075931E+04    0.31823E-02   -0.61124E-03  4448   0.196E-01    0.751E-01
DAV:  41    -0.117469623540E+04   -0.54761E-02   -0.14425E-03  4256   0.998E-02    0.721E-01
DAV:  42    -0.117472382739E+04   -0.27592E-01   -0.69380E-03  4128   0.208E-01    0.663E-01
DAV:  43    -0.117479433596E+04   -0.70509E-01   -0.16841E-02  4128   0.350E-01    0.585E-01
DAV:  44    -0.117487888541E+04   -0.84549E-01   -0.10000E-02  4320   0.210E-01    0.430E-01
DAV:  45    -0.117493354034E+04   -0.54655E-01   -0.42504E-03  4160   0.168E-01    0.402E-01
DAV:  46    -0.117495676911E+04   -0.23229E-01   -0.46909E-03  4224   0.159E-01    0.363E-01
DAV:  47    -0.117497965329E+04   -0.22884E-01   -0.37184E-03  4224   0.149E-01    0.415E-01
DAV:  48    -0.117501178348E+04   -0.32130E-01   -0.40355E-03  4128   0.143E-01    0.487E-01
DAV:  49    -0.117503647154E+04   -0.24688E-01   -0.19164E-03  4160   0.953E-02    0.355E-01
DAV:  50    -0.117504583400E+04   -0.93625E-02   -0.13941E-03  4320   0.875E-02    0.251E-01
DAV:  51    -0.117504859469E+04   -0.27607E-02   -0.27196E-04  4288   0.396E-02    0.227E-01
DAV:  52    -0.117504866832E+04   -0.73632E-04   -0.30370E-05  4192   0.119E-02    0.224E-01
DAV:  53    -0.117504991704E+04   -0.12487E-02   -0.11383E-04  4096   0.274E-02    0.206E-01
DAV:  54    -0.117505365771E+04   -0.37407E-02   -0.11209E-03  4000   0.899E-02    0.904E-02
DAV:  55    -0.117505826899E+04   -0.46113E-02   -0.56915E-04  4384   0.551E-02    0.813E-02
DAV:  56    -0.117506109591E+04   -0.28269E-02   -0.34933E-04  4032   0.397E-02    0.912E-02
DAV:  57    -0.117506216334E+04   -0.10674E-02   -0.10574E-04  4224   0.212E-02    0.866E-02
DAV:  58    -0.117506289556E+04   -0.73222E-03   -0.56382E-05  3872   0.130E-02    0.611E-02
DAV:  59    -0.117506347311E+04   -0.57755E-03   -0.10854E-04  4288   0.193E-02    0.267E-02
DAV:  60    -0.117506364498E+04   -0.17188E-03   -0.13974E-05  3808   0.920E-03    0.201E-02
DAV:  61    -0.117506375582E+04   -0.11083E-03   -0.30505E-06  2784   0.427E-03    0.128E-02
DAV:  62    -0.117506387820E+04   -0.12238E-03   -0.34543E-06  2848   0.385E-03    0.716E-03
DAV:  63    -0.117506395090E+04   -0.72701E-04   -0.11374E-06  2592   0.246E-03    0.498E-03
DAV:  64    -0.117506403610E+04   -0.85195E-04   -0.16883E-06  2592   0.304E-03    0.298E-03
DAV:  65    -0.117506409269E+04   -0.56593E-04   -0.11159E-06  2496   0.191E-03    0.229E-03
DAV:  66    -0.117506412712E+04   -0.34435E-04   -0.55940E-07  2368   0.143E-03    0.191E-03
DAV:  67    -0.117506415163E+04   -0.24503E-04   -0.48273E-07  2368   0.116E-03    0.236E-03
DAV:  68    -0.117506418528E+04   -0.33649E-04   -0.46323E-07  2336   0.123E-03    0.251E-03
DAV:  69    -0.117506423259E+04   -0.47317E-04   -0.11980E-06  2560   0.153E-03    0.270E-03
DAV:  70    -0.117506426263E+04   -0.30039E-04   -0.74486E-07  2400   0.137E-03    0.207E-03
DAV:  71    -0.117506427928E+04   -0.16652E-04   -0.53032E-07  2368   0.131E-03    0.132E-03
DAV:  72    -0.117506429145E+04   -0.12163E-04   -0.52588E-07  2464   0.134E-03    0.585E-04
DAV:  73    -0.117506429730E+04   -0.58521E-05   -0.30687E-07  2368   0.112E-03    0.573E-04
DAV:  74    -0.117506429989E+04   -0.25905E-05   -0.15794E-07  2208   0.871E-04    0.412E-04
DAV:  75    -0.117506430125E+04   -0.13602E-05   -0.98820E-08  2208   0.615E-04    0.322E-04
DAV:  76    -0.117506430237E+04   -0.11197E-05   -0.76974E-08  2176   0.530E-04    0.198E-04
DAV:  77    -0.117506430307E+04   -0.69962E-06   -0.63484E-08  2208   0.435E-04
   1 F= -.11849747E+04 E0= -.11849563E+04  d E =-.118497E+04  mag=    -0.0017
