 vasp.6.0.8 29Jun18 (build Mar 14 2019 11:44:20) complex                        
  
 executed on             LinuxIFC date 2020.12.27  18:06:20
 running  128 mpi-ranks, with    1 threads/rank
 distrk:  each k-point on  128 cores,    1 groups
 distr:  one band on NCORES_PER_BAND=   4 cores,   32 groups


--------------------------------------------------------------------------------------------------------


 INCAR:
 POTCAR:    PAW_PBE C 08Apr2002                   
 POTCAR:    PAW_PBE Fe 06Sep2000                  
 POTCAR:    PAW_PBE H 15Jun2001                   
 POTCAR:    PAW_PBE N 08Apr2002                   
 POTCAR:    PAW_PBE O 08Apr2002                   
 POTCAR:    PAW_PBE C 08Apr2002                   
   VRHFIN =C: s2p2                                                              
   LEXCH  = PE                                                                  
   EATOM  =   147.1560 eV,   10.8157 Ry                                         
                                                                                
   TITEL  = PAW_PBE C 08Apr2002                                                 
   LULTRA =        F    use ultrasoft PP ?                                      
   IUNSCR =        1    unscreen: 0-lin 1-nonlin 2-no                           
   RPACOR =    1.200    partial core radius                                     
   POMASS =   12.011; ZVAL   =    4.000    mass and valenz                      
   RCORE  =    1.500    outmost cutoff radius                                   
   RWIGS  =    1.630; RWIGS  =    0.863    wigner-seitz radius (au A)           
   ENMAX  =  400.000; ENMIN  =  300.000 eV                                      
   ICORE  =        2    local potential                                         
   LCOR   =        T    correct aug charges                                     
   LPAW   =        T    paw PP                                                  
   EAUG   =  644.873                                                            
   DEXC   =    0.000                                                            
   RMAX   =    1.529    core radius for proj-oper                               
   RAUG   =    1.300    factor for augmentation sphere                          
   RDEP   =    1.501    radius for radial grids                                 
   RDEPT  =    1.300    core radius for aug-charge                              
                                                                                
   Atomic configuration                                                         
    4 entries                                                                   
     n  l   j            E        occ.                                          
     1  0  0.50      -273.3789   2.0000                                         
     2  0  0.50       -13.7508   2.0000                                         
     2  1  0.50        -5.2854   2.0000                                         
     3  2  1.50        -5.4423   0.0000                                         
   Description                                                                  
     l       E           TYP  RCUT    TYP  RCUT                                 
     0    -13.7508458     23  1.200                                             
     0     -8.2022199     23  1.200                                             
     1     -5.2854383     23  1.500                                             
     1     34.0145650     23  1.500                                             
     2     -5.4423304      7  1.500                                             
  local pseudopotential read in
  partial core-charges read in
  partial kinetic energy density read in
  atomic valenz-charges read in
  non local Contribution for L=           0  read in
    real space projection operators read in
  non local Contribution for L=           0  read in
    real space projection operators read in
  non local Contribution for L=           1  read in
    real space projection operators read in
  non local Contribution for L=           1  read in
    real space projection operators read in
    PAW grid and wavefunctions read in
 
   number of l-projection  operators is LMAX  =           4
   number of lm-projection operators is LMMAX =           8
 
 POTCAR:    PAW_PBE Fe 06Sep2000                  
   VRHFIN =Fe:  d7 s1                                                           
   LEXCH  = PE                                                                  
   EATOM  =   594.3153 eV,   43.6809 Ry                                         
                                                                                
   TITEL  = PAW_PBE Fe 06Sep2000                                                
   LULTRA =        F    use ultrasoft PP ?                                      
   IUNSCR =        1    unscreen: 0-lin 1-nonlin 2-no                           
   RPACOR =    2.000    partial core radius                                     
   POMASS =   55.847; ZVAL   =    8.000    mass and valenz                      
   RCORE  =    2.300    outmost cutoff radius                                   
   RWIGS  =    2.460; RWIGS  =    1.302    wigner-seitz radius (au A)           
   ENMAX  =  267.882; ENMIN  =  200.911 eV                                      
   RCLOC  =    1.701    cutoff for local pot                                    
   LCOR   =        T    correct aug charges                                     
   LPAW   =        T    paw PP                                                  
   EAUG   =  511.368                                                            
   DEXC   =    0.000                                                            
   RMAX   =    2.356    core radius for proj-oper                               
   RAUG   =    1.300    factor for augmentation sphere                          
   RDEP   =    2.442    radius for radial grids                                 
   RDEPT  =    1.890    core radius for aug-charge                              
                                                                                
   Atomic configuration                                                         
    9 entries                                                                   
     n  l   j            E        occ.                                          
     1  0  0.50     -6993.8440   2.0000                                         
     2  0  0.50      -814.6047   2.0000                                         
     2  1  1.50      -693.3689   6.0000                                         
     3  0  0.50       -89.4732   2.0000                                         
     3  1  1.50       -55.6373   6.0000                                         
     3  2  2.50        -3.8151   7.0000                                         
     4  0  0.50        -4.2551   1.0000                                         
     4  1  1.50        -3.4015   0.0000                                         
     4  3  2.50        -1.3606   0.0000                                         
   Description                                                                  
     l       E           TYP  RCUT    TYP  RCUT                                 
     2     -3.8151135     23  2.300                                             
     2     -5.1756961     23  2.300                                             
     0     -4.2550963     23  2.300                                             
     0      7.2035603     23  2.300                                             
     1     -2.7211652     23  2.300                                             
     1     18.4316424     23  2.300                                             
  local pseudopotential read in
  partial core-charges read in
  partial kinetic energy density read in
  atomic valenz-charges read in
  non local Contribution for L=           2  read in
    real space projection operators read in
  non local Contribution for L=           2  read in
    real space projection operators read in
  non local Contribution for L=           0  read in
    real space projection operators read in
  non local Contribution for L=           0  read in
    real space projection operators read in
  non local Contribution for L=           1  read in
    real space projection operators read in
  non local Contribution for L=           1  read in
    real space projection operators read in
    PAW grid and wavefunctions read in
 
   number of l-projection  operators is LMAX  =           6
   number of lm-projection operators is LMMAX =          18
 
 POTCAR:    PAW_PBE H 15Jun2001                   
   VRHFIN =H: ultrasoft test                                                    
   LEXCH  = PE                                                                  
   EATOM  =    12.4884 eV,    0.9179 Ry                                         
                                                                                
   TITEL  = PAW_PBE H 15Jun2001                                                 
   LULTRA =        F    use ultrasoft PP ?                                      
   IUNSCR =        0    unscreen: 0-lin 1-nonlin 2-no                           
   RPACOR =    0.000    partial core radius                                     
   POMASS =    1.000; ZVAL   =    1.000    mass and valenz                      
   RCORE  =    1.100    outmost cutoff radius                                   
   RWIGS  =    0.700; RWIGS  =    0.370    wigner-seitz radius (au A)           
   ENMAX  =  250.000; ENMIN  =  200.000 eV                                      
   RCLOC  =    0.701    cutoff for local pot                                    
   LCOR   =        T    correct aug charges                                     
   LPAW   =        T    paw PP                                                  
   EAUG   =  400.000                                                            
   RMAX   =    1.123    core radius for proj-oper                               
   RAUG   =    1.200    factor for augmentation sphere                          
   RDEP   =    1.112    radius for radial grids                                 
   RDEPT  =    0.926    core radius for aug-charge                              
                                                                                
   Atomic configuration                                                         
    2 entries                                                                   
     n  l   j            E        occ.                                          
     1  0  0.50        -6.4927   1.0000                                         
     2  1  0.50        -3.4015   0.0000                                         
   Description                                                                  
     l       E           TYP  RCUT    TYP  RCUT                                 
     0     -6.4927494     23  1.100                                             
     0      6.8029130     23  1.100                                             
     1     -4.0817478     23  1.100                                             
  local pseudopotential read in
  atomic valenz-charges read in
  non local Contribution for L=           0  read in
    real space projection operators read in
  non local Contribution for L=           0  read in
    real space projection operators read in
  non local Contribution for L=           1  read in
    real space projection operators read in
    PAW grid and wavefunctions read in
 
   number of l-projection  operators is LMAX  =           3
   number of lm-projection operators is LMMAX =           5
 
 POTCAR:    PAW_PBE N 08Apr2002                   
   VRHFIN =N: s2p3                                                              
   LEXCH  = PE                                                                  
   EATOM  =   264.5486 eV,   19.4438 Ry                                         
                                                                                
   TITEL  = PAW_PBE N 08Apr2002                                                 
   LULTRA =        F    use ultrasoft PP ?                                      
   IUNSCR =        1    unscreen: 0-lin 1-nonlin 2-no                           
   RPACOR =    1.200    partial core radius                                     
   POMASS =   14.001; ZVAL   =    5.000    mass and valenz                      
   RCORE  =    1.500    outmost cutoff radius                                   
   RWIGS  =    1.400; RWIGS  =    0.741    wigner-seitz radius (au A)           
   ENMAX  =  400.000; ENMIN  =  300.000 eV                                      
   ICORE  =        2    local potential                                         
   LCOR   =        T    correct aug charges                                     
   LPAW   =        T    paw PP                                                  
   EAUG   =  627.112                                                            
   DEXC   =    0.000                                                            
   RMAX   =    1.529    core radius for proj-oper                               
   RAUG   =    1.300    factor for augmentation sphere                          
   RDEP   =    1.514    radius for radial grids                                 
   RDEPT  =    1.338    core radius for aug-charge                              
                                                                                
   Atomic configuration                                                         
    4 entries                                                                   
     n  l   j            E        occ.                                          
     1  0  0.50      -384.7179   2.0000                                         
     2  0  0.50       -18.5828   2.0000                                         
     2  1  0.50        -7.0898   3.0000                                         
     3  2  1.50        -6.8029   0.0000                                         
   Description                                                                  
     l       E           TYP  RCUT    TYP  RCUT                                 
     0    -18.5828119     23  1.200                                             
     0    -13.5018863     23  1.200                                             
     1     -7.0897853     23  1.500                                             
     1      9.5240782     23  1.500                                             
     2     -6.8029130      7  1.500                                             
  local pseudopotential read in
  partial core-charges read in
  partial kinetic energy density read in
  atomic valenz-charges read in
  non local Contribution for L=           0  read in
    real space projection operators read in
  non local Contribution for L=           0  read in
    real space projection operators read in
  non local Contribution for L=           1  read in
    real space projection operators read in
  non local Contribution for L=           1  read in
    real space projection operators read in
    PAW grid and wavefunctions read in
 
   number of l-projection  operators is LMAX  =           4
   number of lm-projection operators is LMMAX =           8
 
 POTCAR:    PAW_PBE O 08Apr2002                   
   VRHFIN =O: s2p4                                                              
   LEXCH  = PE                                                                  
   EATOM  =   432.3788 eV,   31.7789 Ry                                         
                                                                                
   TITEL  = PAW_PBE O 08Apr2002                                                 
   LULTRA =        F    use ultrasoft PP ?                                      
   IUNSCR =        1    unscreen: 0-lin 1-nonlin 2-no                           
   RPACOR =    1.200    partial core radius                                     
   POMASS =   16.000; ZVAL   =    6.000    mass and valenz                      
   RCORE  =    1.520    outmost cutoff radius                                   
   RWIGS  =    1.550; RWIGS  =    0.820    wigner-seitz radius (au A)           
   ENMAX  =  400.000; ENMIN  =  300.000 eV                                      
   ICORE  =        2    local potential                                         
   LCOR   =        T    correct aug charges                                     
   LPAW   =        T    paw PP                                                  
   EAUG   =  605.392                                                            
   DEXC   =    0.000                                                            
   RMAX   =    1.553    core radius for proj-oper                               
   RAUG   =    1.300    factor for augmentation sphere                          
   RDEP   =    1.550    radius for radial grids                                 
   RDEPT  =    1.329    core radius for aug-charge                              
                                                                                
   Atomic configuration                                                         
    4 entries                                                                   
     n  l   j            E        occ.                                          
     1  0  0.50      -514.6923   2.0000                                         
     2  0  0.50       -23.9615   2.0000                                         
     2  1  0.50        -9.0305   4.0000                                         
     3  2  1.50        -9.5241   0.0000                                         
   Description                                                                  
     l       E           TYP  RCUT    TYP  RCUT                                 
     0    -23.9615318     23  1.200                                             
     0     -9.5240782     23  1.200                                             
     1     -9.0304911     23  1.520                                             
     1      8.1634956     23  1.520                                             
     2     -9.5240782      7  1.500                                             
  local pseudopotential read in
  partial core-charges read in
  partial kinetic energy density read in
  kinetic energy density of atom read in
  atomic valenz-charges read in
  non local Contribution for L=           0  read in
    real space projection operators read in
  non local Contribution for L=           0  read in
    real space projection operators read in
  non local Contribution for L=           1  read in
    real space projection operators read in
  non local Contribution for L=           1  read in
    real space projection operators read in
    PAW grid and wavefunctions read in
 
   number of l-projection  operators is LMAX  =           4
   number of lm-projection operators is LMMAX =           8
 
 Optimization of the real space projectors (new method)

 maximal supplied QI-value         = 25.13
 optimisation between [QCUT,QGAM] = [ 12.32, 24.88] = [ 42.47,173.37] Ry 
 Optimized for a Real-space Cutoff    1.06 Angstroem

   l    n(q)    QCUT    max X(q) W(low)/X(q) W(high)/X(q)  e(spline) 
   0      8    12.315   115.676    0.34E-03    0.18E-03    0.23E-06
   0      8    12.315    87.132    0.34E-03    0.18E-03    0.22E-06
   1      7    12.315     4.429    0.45E-03    0.12E-03    0.18E-06
   1      7    12.315     2.733    0.35E-03    0.97E-04    0.15E-06
 Optimization of the real space projectors (new method)

 maximal supplied QI-value         = 16.25
 optimisation between [QCUT,QGAM] = [ 12.51, 25.03] = [ 43.85,175.40] Ry 
 Optimized for a Real-space Cutoff    1.35 Angstroem

   l    n(q)    QCUT    max X(q) W(low)/X(q) W(high)/X(q)  e(spline) 
   2      9    12.514    80.901    0.12E-03    0.34E-03    0.58E-06
   2      9    12.514    75.754    0.12E-03    0.34E-03    0.59E-06
   0     10    12.514    58.752    0.17E-03    0.81E-04    0.93E-07
   0     10    12.514    30.679    0.15E-03    0.74E-04    0.88E-07
   1     10    12.514    17.977    0.11E-03    0.79E-04    0.24E-06
   1     10    12.514    13.559    0.97E-04    0.61E-04    0.20E-06
 Optimization of the real space projectors (new method)

 maximal supplied QI-value         = 34.20
 optimisation between [QCUT,QGAM] = [ 12.31, 24.97] = [ 42.46,174.58] Ry 
 Optimized for a Real-space Cutoff    1.00 Angstroem

   l    n(q)    QCUT    max X(q) W(low)/X(q) W(high)/X(q)  e(spline) 
   0      7    12.313    19.460    0.14E-03    0.42E-03    0.16E-06
   0      7    12.313    12.209    0.12E-03    0.40E-03    0.16E-06
   1      7    12.313     4.655    0.33E-03    0.59E-03    0.89E-07
 Optimization of the real space projectors (new method)

 maximal supplied QI-value         = 25.13
 optimisation between [QCUT,QGAM] = [ 12.32, 24.88] = [ 42.47,173.37] Ry 
 Optimized for a Real-space Cutoff    1.20 Angstroem

   l    n(q)    QCUT    max X(q) W(low)/X(q) W(high)/X(q)  e(spline) 
   0      9    12.315    79.467    0.14E-03    0.22E-04    0.37E-06
   0      9    12.315    66.151    0.14E-03    0.23E-04    0.36E-06
   1      8    12.315    22.077    0.30E-03    0.54E-03    0.45E-06
   1      8    12.315    15.894    0.30E-03    0.55E-03    0.45E-06
 Optimization of the real space projectors (new method)

 maximal supplied QI-value         = 24.76
 optimisation between [QCUT,QGAM] = [ 12.38, 25.00] = [ 42.90,175.06] Ry 
 Optimized for a Real-space Cutoff    1.13 Angstroem

   l    n(q)    QCUT    max X(q) W(low)/X(q) W(high)/X(q)  e(spline) 
   0      8    12.378    20.381    0.16E-03    0.54E-05    0.27E-06
   0      8    12.378    15.268    0.17E-03    0.61E-05    0.29E-06
   1      8    12.378     5.964    0.38E-03    0.23E-03    0.28E-06
   1      8    12.378     5.382    0.33E-03    0.20E-03    0.25E-06
  PAW_PBE C 08Apr2002                   :
 energy of atom  1       EATOM= -147.1560
 kinetic energy error for atom=    0.0057 (will be added to EATOM!!)
  PAW_PBE Fe 06Sep2000                  :
 energy of atom  2       EATOM= -594.3153
 kinetic energy error for atom=    0.0017 (will be added to EATOM!!)
  PAW_PBE H 15Jun2001                   :
 energy of atom  3       EATOM=  -12.4884
 kinetic energy error for atom=    0.0004 (will be added to EATOM!!)
  PAW_PBE N 08Apr2002                   :
 energy of atom  4       EATOM= -264.5486
 kinetic energy error for atom=    0.0103 (will be added to EATOM!!)
  PAW_PBE O 08Apr2002                   :
 energy of atom  5       EATOM= -432.3788
 kinetic energy error for atom=    0.0168 (will be added to EATOM!!)
 
 
 POSCAR: FeH_exp1
  positions in direct lattice
  velocities in cartesian coordinates
 exchange correlation table for  LEXCH =        8
   RHO(1)=    0.500       N(1)  =     2000
   RHO(2)=  100.500       N(2)  =     4000
 


--------------------------------------------------------------------------------------------------------


 ion  position               nearest neighbor table
   1  0.907  0.972  0.096- 107 1.08 117 1.35  65 1.40
   2  0.925  0.979  0.401- 112 1.08 118 1.35  65 1.40
   3  0.907  0.810  0.913- 116 1.08 119 1.35  66 1.40
   4  0.593  0.472  0.599- 110 1.08 120 1.35  67 1.40
   5  0.575  0.302  0.110- 111 1.08 121 1.35  68 1.40
   6  0.075  0.802  0.108- 115 1.08 122 1.35  69 1.40
   7  0.574  0.479  0.903- 101 1.08 123 1.35  67 1.40
   8  0.593  0.310  0.414- 113 1.08 124 1.35  68 1.40
   9  0.425  0.479  0.402- 114 1.08 125 1.35  70 1.40
  10  0.093  0.809  0.413- 104 1.08 126 1.35  69 1.40
  11  0.075  0.979  0.899- 105 1.08 127 1.35  71 1.40
  12  0.426  0.302  0.609- 102 1.08 128 1.35  72 1.40
  13  0.925  0.802  0.609- 108 1.08 129 1.35  66 1.40
  14  0.093  0.971  0.595- 109 1.08 130 1.35  71 1.40
  15  0.407  0.309  0.913- 106 1.08 131 1.35  72 1.40
  16  0.407  0.471  0.098- 103 1.08 132 1.35  70 1.40
  17  0.820  0.040  0.419- 141 1.23 133 1.43  33 1.48
  18  0.845  0.078  0.084- 142 1.23 133 1.42  34 1.48
  19  0.845  0.704  0.927- 143 1.23 134 1.42  35 1.48
  20  0.654  0.578  0.587- 144 1.23 135 1.42  36 1.48
  21  0.655  0.204  0.427- 145 1.23 136 1.42  37 1.48
  22  0.180  0.740  0.090- 146 1.23 137 1.43  38 1.48
  23  0.680  0.541  0.922- 147 1.23 135 1.43  39 1.48
  24  0.680  0.241  0.092- 148 1.23 136 1.43  40 1.48
  25  0.320  0.540  0.420- 149 1.23 138 1.43  41 1.48
  26  0.154  0.703  0.425- 150 1.23 137 1.42  42 1.48
  27  0.155  0.077  0.582- 151 1.23 139 1.42  43 1.48
  28  0.346  0.203  0.925- 152 1.23 140 1.42  44 1.48
  29  0.819  0.741  0.592- 153 1.23 134 1.43  45 1.48
  30  0.181  0.040  0.917- 154 1.23 139 1.43  46 1.48
  31  0.320  0.240  0.589- 155 1.23 140 1.43  47 1.48
  32  0.345  0.577  0.085- 156 1.23 138 1.42  48 1.48
  33  0.778  0.083  0.417-  49 1.39  73 1.42  17 1.48
  34  0.803  0.119  0.090-  50 1.39  73 1.41  18 1.48
  35  0.802  0.662  0.922-  51 1.39  74 1.42  19 1.48
  36  0.697  0.619  0.592-  52 1.39  75 1.41  20 1.48
  37  0.697  0.162  0.421-  53 1.39  76 1.41  21 1.48
  38  0.222  0.698  0.093-  54 1.39  77 1.42  22 1.48
  39  0.722  0.583  0.920-  55 1.39  75 1.42  23 1.48
  40  0.722  0.199  0.094-  56 1.39  76 1.42  24 1.48
  41  0.278  0.582  0.418-  57 1.39  78 1.42  25 1.48
  42  0.197  0.662  0.420-  58 1.39  77 1.41  26 1.48
  43  0.198  0.118  0.588-  59 1.39  79 1.42  27 1.48
  44  0.303  0.162  0.918-  60 1.39  80 1.41  28 1.48
  45  0.777  0.699  0.594-  61 1.39  74 1.42  29 1.48
  46  0.223  0.082  0.915-  62 1.39  79 1.42  30 1.48
  47  0.278  0.198  0.591-  63 1.39  80 1.42  31 1.48
  48  0.303  0.619  0.091-  64 1.39  78 1.41  32 1.48
  49  0.746  0.085  0.578-  88 1.09  33 1.39  53 1.40
  50  0.795  0.157  0.932-  99 1.09  34 1.39  56 1.40
  51  0.794  0.625  0.081-  93 1.09  35 1.39  55 1.40
  52  0.705  0.657  0.433-  90 1.09  36 1.39  61 1.40
  53  0.706  0.124  0.579-  98 1.09  37 1.39  49 1.40
  54  0.254  0.696  0.933-  96 1.09  38 1.39  64 1.40
  55  0.754  0.585  0.080-  86 1.09  39 1.39  51 1.40
  56  0.755  0.197  0.934-  87 1.09  40 1.39  50 1.40
  57  0.245  0.584  0.577-  95 1.09  41 1.39  58 1.40
  58  0.205  0.624  0.578-  91 1.09  42 1.39  57 1.40
  59  0.206  0.156  0.429-  92 1.09  43 1.39  63 1.40
  60  0.295  0.124  0.077-  85 1.09  44 1.39  62 1.40
  61  0.745  0.696  0.434-  89 1.09  45 1.39  52 1.40
  62  0.255  0.084  0.075- 100 1.09  46 1.39  60 1.40
  63  0.246  0.196  0.431-  94 1.09  47 1.39  59 1.40
  64  0.295  0.656  0.932-  97 1.09  48 1.39  54 1.40
  65  0.892  1.000  0.249-   2 1.40   1 1.40 133 1.42
  66  0.892  0.781  0.761-  13 1.40   3 1.40 134 1.42
  67  0.608  0.500  0.752-   7 1.40   4 1.40 135 1.42
  68  0.608  0.281  0.262-   5 1.40   8 1.40 136 1.42
  69  0.108  0.781  0.260-   6 1.40  10 1.40 137 1.42
  70  0.392  0.499  0.250-   9 1.40  16 1.40 138 1.42
  71  0.108  0.999  0.747-  14 1.40  11 1.40 139 1.42
  72  0.392  0.281  0.760-  12 1.40  15 1.40 140 1.42
  73  0.771  0.121  0.255-  34 1.41  33 1.42  76 1.43
  74  0.770  0.661  0.758-  35 1.42  45 1.42  75 1.43
  75  0.729  0.621  0.756-  36 1.41  39 1.42  74 1.43
  76  0.730  0.161  0.257-  37 1.41  40 1.42  73 1.43
  77  0.229  0.660  0.256-  42 1.41  38 1.42  78 1.43
  78  0.270  0.620  0.255-  48 1.41  41 1.42  77 1.43
  79  0.230  0.120  0.752-  43 1.42  46 1.42  80 1.43
  80  0.271  0.160  0.754-  44 1.41  47 1.42  79 1.43
  81  0.993  0.891  0.004- 119 2.01 117 2.01 127 2.02 122 2.02
  82  0.007  0.890  0.504- 126 2.01 130 2.01 118 2.02 129 2.02
  83  0.507  0.390  0.506- 124 2.01 120 2.01 128 2.02 125 2.02
  84  0.493  0.390  0.006- 132 2.01 131 2.01 123 2.02 121 2.02
  85  0.321  0.126  0.202-  60 1.09
  86  0.748  0.556  0.204-  55 1.09
  87  0.748  0.226  0.810-  56 1.09
  88  0.752  0.055  0.701-  49 1.09
  89  0.751  0.726  0.310-  61 1.09
  90  0.679  0.655  0.309-  52 1.09
  91  0.179  0.626  0.703-  58 1.09
  92  0.180  0.154  0.304-  59 1.09
  93  0.820  0.627  0.205-  51 1.09
  94  0.253  0.225  0.307-  63 1.09
  95  0.252  0.555  0.701-  57 1.09
  96  0.248  0.725  0.809-  54 1.09
  97  0.320  0.655  0.807-  64 1.09
  98  0.680  0.126  0.704-  53 1.09
  99  0.820  0.155  0.807-  50 1.09
 100  0.249  0.055  0.199-  62 1.09
 101  0.573  0.489  0.048-   7 1.08
 102  0.427  0.291  0.464-  12 1.08
 103  0.391  0.475  0.953-  16 1.08
 104  0.108  0.805  0.558-  10 1.08
 105  0.073  0.989  0.044-  11 1.08
 106  0.392  0.305  0.058-  15 1.08
 107  0.892  0.976  0.951-   1 1.08
 108  0.927  0.791  0.464-  13 1.08
 109  0.108  0.975  0.450-  14 1.08
 110  0.608  0.475  0.454-   4 1.08
 111  0.573  0.291  0.965-   5 1.08
 112  0.927  0.989  0.546-   2 1.08
 113  0.609  0.306  0.559-   8 1.08
 114  0.427  0.489  0.547-   9 1.08
 115  0.073  0.792  0.963-   6 1.08
 116  0.892  0.806  0.058-   3 1.08
 117  0.947  0.937  0.154-   1 1.35 118 1.38  81 2.01
 118  0.958  0.941  0.342-   2 1.35 117 1.38  82 2.02
 119  0.947  0.845  0.854-   3 1.35 129 1.38  81 2.01
 120  0.553  0.436  0.656-   4 1.35 123 1.38  83 2.01
 121  0.542  0.340  0.168-   5 1.35 124 1.38  84 2.02
 122  0.042  0.840  0.166-   6 1.35 126 1.38  81 2.02
 123  0.542  0.441  0.845-   7 1.35 120 1.38  84 2.02
 124  0.553  0.345  0.356-   8 1.35 121 1.38  83 2.01
 125  0.458  0.441  0.344-   9 1.35 132 1.38  83 2.02
 126  0.053  0.844  0.355-  10 1.35 122 1.38  82 2.01
 127  0.042  0.941  0.842-  11 1.35 130 1.38  81 2.02
 128  0.458  0.340  0.667-  12 1.35 131 1.38  83 2.02
 129  0.958  0.840  0.666-  13 1.35 119 1.38  82 2.02
 130  0.053  0.936  0.654-  14 1.35 127 1.38  82 2.01
 131  0.447  0.344  0.856-  15 1.35 128 1.38  84 2.01
 132  0.446  0.436  0.156-  16 1.35 125 1.38  84 2.01
 133  0.852  0.040  0.251-  65 1.42  18 1.42  17 1.43
 134  0.851  0.741  0.760-  66 1.42  19 1.42  29 1.43
 135  0.648  0.540  0.754-  67 1.42  20 1.42  23 1.43
 136  0.649  0.241  0.260-  68 1.42  21 1.42  24 1.43
 137  0.148  0.741  0.259-  69 1.42  26 1.42  22 1.43
 138  0.351  0.540  0.252-  70 1.42  32 1.42  25 1.43
 139  0.149  0.040  0.749-  71 1.42  27 1.42  30 1.43
 140  0.352  0.241  0.758-  72 1.42  28 1.42  31 1.43
 141  0.828  0.007  0.559-  17 1.23
 142  0.874  0.075  0.943-  18 1.23
 143  0.873  0.707  0.068-  19 1.23
 144  0.626  0.575  0.446-  20 1.23
 145  0.627  0.207  0.568-  21 1.23
 146  0.172  0.774  0.951-  22 1.23
 147  0.672  0.508  0.062-  23 1.23
 148  0.673  0.274  0.952-  24 1.23
 149  0.328  0.507  0.560-  25 1.23
 150  0.126  0.706  0.566-  26 1.23
 151  0.127  0.074  0.440-  27 1.23
 152  0.374  0.206  0.066-  28 1.23
 153  0.827  0.774  0.452-  29 1.23
 154  0.173  0.007  0.057-  30 1.23
 155  0.328  0.274  0.450-  31 1.23
 156  0.374  0.574  0.944-  32 1.23
 

IMPORTANT INFORMATION: All symmetrisations will be switched off!
NOSYMM: (Re-)initialisation of all symmetry stuff for point group C_1.


----------------------------------------------------------------------------------------

                                     Primitive cell                                     

  volume of cell :    4351.1112

  direct lattice vectors                    reciprocal lattice vectors
    24.774838438  0.002793691 -0.016013943     0.040363548 -0.000000724  0.000023979
    -0.001062954 24.929452513  2.542088984    -0.000004931  0.040176407 -0.000619893
    -0.004189802  0.108869028  7.056033014     0.000093383 -0.014474424  0.141946077

  length of vectors
    24.774843771 25.058727424  7.056874090     0.040363555  0.040181189  0.142682187

  position of ions in fractional coordinates (direct lattice)
     0.907044010  0.971743981  0.095770105
     0.925232749  0.978873665  0.400608444
     0.906905665  0.809665134  0.912990940
     0.592914727  0.471701543  0.598819792
     0.574741375  0.301839144  0.110039733
     0.074589484  0.801720058  0.107973192
     0.574331113  0.479182114  0.902979671
     0.593298968  0.309545251  0.414247755
     0.425331398  0.478993135  0.401919681
     0.092724591  0.808945330  0.412792221
     0.075048501  0.979050031  0.899231451
     0.425574422  0.301658189  0.608864250
     0.925034984  0.801773194  0.608789874
     0.093270270  0.971134552  0.595137292
     0.406982197  0.309167473  0.913014527
     0.406668435  0.471258916  0.097839343
     0.819991616  0.040375302  0.419363764
     0.845135159  0.077506536  0.084232013
     0.844785181  0.703945019  0.927156625
     0.654236847  0.577666607  0.586841436
     0.655243930  0.203823165  0.426944636
     0.179861789  0.740193290  0.090290914
     0.679630577  0.540761225  0.922258408
     0.680290027  0.240844726  0.091538809
     0.319792167  0.540143308  0.420432129
     0.154491860  0.703109138  0.425292476
     0.155444573  0.076892653  0.581703077
     0.345500531  0.203250782  0.924566789
     0.819457850  0.740696745  0.591530317
     0.180710829  0.039905069  0.917115503
     0.320240332  0.240293039  0.589164252
     0.345088456  0.577171757  0.085287766
     0.778058243  0.082523800  0.417326223
     0.802918096  0.119064304  0.090342226
     0.802438536  0.662469920  0.921840967
     0.696553476  0.619136996  0.592347411
     0.697488201  0.162292040  0.420889817
     0.221948156  0.698186334  0.093046150
     0.721666141  0.582836803  0.919569251
     0.722325417  0.198818056  0.093812192
     0.277699933  0.582146988  0.417678895
     0.196872440  0.661681290  0.419895951
     0.197733002  0.118394231  0.587710166
     0.303301101  0.161695837  0.918414281
     0.777321777  0.698728888  0.594478068
     0.222748121  0.081941690  0.914899053
     0.278299918  0.198169314  0.591189810
     0.302748610  0.618623749  0.090748068
     0.745653367  0.084811829  0.577586357
     0.794770762  0.157006457  0.931915098
     0.794392472  0.624654087  0.080632148
     0.704586988  0.656910744  0.433493461
     0.705611917  0.124328593  0.579261588
     0.254489452  0.695899335  0.933141202
     0.754248636  0.585211337  0.079604306
     0.754716736  0.196509523  0.933567128
     0.245104787  0.584377844  0.577489504
     0.204924771  0.623773428  0.578496007
     0.205799466  0.156298462  0.429188814
     0.295290835  0.123754298  0.076841137
     0.744737610  0.696338181  0.434437318
     0.255260741  0.084230440  0.075163268
     0.245850145  0.195809380  0.430822826
     0.294651836  0.656488636  0.932069946
     0.891915723  0.999665681  0.248655415
     0.891710220  0.781388640  0.761002549
     0.607749297  0.499846348  0.751517810
     0.608264831  0.281396178  0.261849232
     0.107812557  0.780908153  0.260189643
     0.391784361  0.499439994  0.250248909
     0.108449957  0.999386097  0.747180212
     0.392115388  0.281053602  0.760286148
     0.770543536  0.120537081  0.254696323
     0.769874777  0.660926467  0.757685275
     0.729106374  0.620685767  0.756499210
     0.729875231  0.160858671  0.256549749
     0.229437639  0.660278456  0.255981943
     0.270228218  0.620065816  0.254754316
     0.230182298  0.119904273  0.752148281
     0.270845776  0.160222661  0.753997663
     0.993028820  0.890632340  0.003847982
     0.007017273  0.890244733  0.504137680
     0.507210118  0.390444054  0.506002821
     0.492764828  0.390317279  0.005998124
     0.320776014  0.125675177  0.201785599
     0.747619002  0.555785399  0.203703024
     0.747978606  0.226007005  0.809701516
     0.752332191  0.055262010  0.701352444
     0.751388255  0.725718230  0.310230593
     0.679036489  0.654921743  0.308782539
     0.179337990  0.625617474  0.703003013
     0.180337193  0.154366091  0.304205193
     0.819944245  0.626590042  0.205385443
     0.252513632  0.225297912  0.306929953
     0.251750869  0.554877164  0.701415631
     0.247806165  0.725360503  0.809145533
     0.320169776  0.654586903  0.807431032
     0.680184866  0.126199927  0.704166193
     0.820143551  0.155096121  0.806913241
     0.248646188  0.054693372  0.198940909
     0.572502980  0.489476017  0.047710383
     0.427390839  0.291364748  0.464130665
     0.391249093  0.474850739  0.953054780
     0.107837839  0.805153159  0.558018491
     0.073384366  0.989445102  0.043875891
     0.391605393  0.305461669  0.057738671
     0.891904027  0.975574526  0.950574681
     0.926646029  0.791382847  0.464136540
     0.108457682  0.974562473  0.450189097
     0.608282961  0.475422443  0.454089390
     0.572966624  0.291490082  0.965339655
     0.926919919  0.988922314  0.545679798
     0.608674004  0.305944485  0.559087278
     0.427191991  0.489392384  0.546523772
     0.072901013  0.791596854  0.962990870
     0.891778512  0.806204777  0.058030085
     0.946736877  0.936551935  0.153623499
     0.957918631  0.941012608  0.342184111
     0.946630692  0.844682145  0.854416971
     0.553287711  0.436459780  0.656300120
     0.542063630  0.339758967  0.168101899
     0.042010584  0.839731126  0.165995867
     0.541849912  0.441130050  0.844506972
     0.553482930  0.344569466  0.356304649
     0.457947452  0.441028649  0.343833095
     0.053170700  0.844243930  0.354531203
     0.042265899  0.941110005  0.841625778
     0.458123854  0.339638227  0.667432978
     0.957793325  0.839749351  0.666276533
     0.053479707  0.936166431  0.653513599
     0.446687637  0.344325890  0.855605803
     0.446464103  0.436200874  0.155681759
     0.851540867  0.040025684  0.250714815
     0.851206907  0.741128324  0.759927794
     0.648027970  0.540275068  0.753567178
     0.648723970  0.241137352  0.260119509
     0.148177038  0.740535081  0.258609165
     0.351389024  0.539759587  0.251965994
     0.148985176  0.039604156  0.748590383
     0.351803319  0.240673397  0.757993574
     0.827668884  0.006931192  0.558667735
     0.873529173  0.074794365  0.942822150
     0.873275122  0.706824776  0.068455348
     0.625593551  0.574938206  0.445835708
     0.626924140  0.206643831  0.568454548
     0.172150809  0.773529370  0.950666406
     0.671929370  0.507507685  0.062034242
     0.672511632  0.274229965  0.952126089
     0.327565506  0.506850027  0.560098349
     0.125896649  0.705749564  0.566242082
     0.127010504  0.074128664  0.440170466
     0.373955818  0.206006981  0.066015583
     0.827145663  0.773927197  0.451679783
     0.173056415  0.006521936  0.056528484
     0.327933426  0.273691378  0.449784348
     0.373664977  0.574489263  0.944326802

  ion indices of the primitive-cell ions
   primitive index   ion index
                 1           1
                 2           2
                 3           3
                 4           4
                 5           5
                 6           6
                 7           7
                 8           8
                 9           9
                10          10
                11          11
                12          12
                13          13
                14          14
                15          15
                16          16
                17          17
                18          18
                19          19
                20          20
                21          21
                22          22
                23          23
                24          24
                25          25
                26          26
                27          27
                28          28
                29          29
                30          30
                31          31
                32          32
                33          33
                34          34
                35          35
                36          36
                37          37
                38          38
                39          39
                40          40
                41          41
                42          42
                43          43
                44          44
                45          45
                46          46
                47          47
                48          48
                49          49
                50          50
                51          51
                52          52
                53          53
                54          54
                55          55
                56          56
                57          57
                58          58
                59          59
                60          60
                61          61
                62          62
                63          63
                64          64
                65          65
                66          66
                67          67
                68          68
                69          69
                70          70
                71          71
                72          72
                73          73
                74          74
                75          75
                76          76
                77          77
                78          78
                79          79
                80          80
                81          81
                82          82
                83          83
                84          84
                85          85
                86          86
                87          87
                88          88
                89          89
                90          90
                91          91
                92          92
                93          93
                94          94
                95          95
                96          96
                97          97
                98          98
                99          99
               100         100
               101         101
               102         102
               103         103
               104         104
               105         105
               106         106
               107         107
               108         108
               109         109
               110         110
               111         111
               112         112
               113         113
               114         114
               115         115
               116         116
               117         117
               118         118
               119         119
               120         120
               121         121
               122         122
               123         123
               124         124
               125         125
               126         126
               127         127
               128         128
               129         129
               130         130
               131         131
               132         132
               133         133
               134         134
               135         135
               136         136
               137         137
               138         138
               139         139
               140         140
               141         141
               142         142
               143         143
               144         144
               145         145
               146         146
               147         147
               148         148
               149         149
               150         150
               151         151
               152         152
               153         153
               154         154
               155         155
               156         156

----------------------------------------------------------------------------------------

 
 

Automatic generation of k-mesh.
 generate k-points for:    1    1    3
Space group operators:
 irot       det(A)        alpha          n_x          n_y          n_z        tau_x        tau_y        tau_z
    1     1.000000     0.000001     1.000000     0.000000     0.000000     0.000000     0.000000     0.000000
 
 Subroutine IBZKPT returns following result:
 ===========================================
 
 Found      2 irreducible k-points:
 
 Following reciprocal coordinates:
            Coordinates               Weight
  0.000000  0.000000  0.000000      1.000000
  0.000000 -0.000000  0.333333      2.000000
 
 Following cartesian coordinates:
            Coordinates               Weight
  0.000000  0.000000  0.000000      1.000000
  0.000031 -0.004825  0.047315      2.000000
 


--------------------------------------------------------------------------------------------------------




 Dimension of arrays:
   k-points           NKPTS =      2   k-points in BZ     NKDIM =      2   number of bands    NBANDS=    384
   number of dos      NEDOS =    301   number of ions     NIONS =    156
   non local maximal  LDIM  =      6   non local SUM 2l+1 LMDIM =     18
   total plane-waves  NPLWV = 945000
   max r-space proj   IRMAX =   2268   max aug-charges    IRDMAX=   7935
   dimension x,y,z NGX =   150 NGY =  150 NGZ =   42
   dimension x,y,z NGXF=   300 NGYF=  300 NGZF=   84
   support grid    NGXF=   300 NGYF=  300 NGZF=   84
   ions per type =              80   4  32  24  16
   NGX,Y,Z   is equivalent  to a cutoff of  10.07,  9.95,  9.89 a.u.
   NGXF,Y,Z  is equivalent  to a cutoff of  20.13, 19.90, 19.79 a.u.

 SYSTEM =  flex_MOF                                
 POSCAR =  FeH_exp1                                

 Startparameter for this run:
   NWRITE =      2    write-flag & timer
   PREC   = normal    normal or accurate (medium, high low for compatibility)
   ISTART =      0    job   : 0-new  1-cont  2-samecut
   ICHARG =      2    charge: 1-file 2-atom 10-const
   ISPIN  =      2    spin polarized calculation?
   LNONCOLLINEAR =      F non collinear calculations
   LSORBIT =      F    spin-orbit coupling
   INIWAV =      1    electr: 0-lowe 1-rand  2-diag
   LASPH  =      F    aspherical Exc in radial PAW
   METAGGA=      F    non-selfconsistent MetaGGA calc.

 Electronic Relaxation 1
   ENCUT  =  600.0 eV  44.10 Ry    6.64 a.u.  49.48 50.05 14.09*2*pi/ulx,y,z
   ENINI  =  600.0     initial cutoff
   ENAUG  =  644.9 eV  augmentation charge cutoff
   NELM   =     80;   NELMIN=  3; NELMDL= -8     # of ELM steps 
   EDIFF  = 0.1E-05   stopping-criterion for ELM
   LREAL  =      T    real-space projection
   NLSPLINE    = F    spline interpolate recip. space projectors
   LCOMPAT=      F    compatible to vasp.4.4
   GGA_COMPAT  = T    GGA compatible to vasp.4.4-vasp.4.6
   LMAXPAW     = -100 max onsite density
   LMAXMIX     =    2 max onsite mixed and CHGCAR
   VOSKOWN=      0    Vosko Wilk Nusair interpolation
   ROPT   =   -0.00050  -0.00050  -0.00050  -0.00050
   ROPT   =   -0.00050
 Ionic relaxation
   EDIFFG = -.1E-01   stopping-criterion for IOM
   NSW    =   1000    number of steps for IOM
   NBLOCK =      1;   KBLOCK =   1000    inner block; outer block 
   IBRION =      2    ionic relax: 0-MD 1-quasi-New 2-CG
   NFREE  =      1    steps in history (QN), initial steepest desc. (CG)
   ISIF   =      4    stress and relaxation
   IWAVPR =     11    prediction:  0-non 1-charg 2-wave 3-comb
   ISYM   =      0    0-nonsym 1-usesym 2-fastsym
   LCORR  =      T    Harris-Foulkes like correction to forces

   POTIM  = 0.5000    time-step for ionic-motion
   TEIN   =    0.0    initial temperature
   TEBEG  =    0.0;   TEEND  =   0.0 temperature during run
   SMASS  =  -3.00    Nose mass-parameter (am)
   estimated Nose-frequenzy (Omega)   =  0.10E-29 period in steps = 0.13E+47 mass=  -0.140E-25a.u.
   SCALEE = 1.0000    scale energy and forces
   NPACO  =    256;   APACO  = 16.0  distance and # of slots for P.C.
   PSTRESS=    0.0 pullay stress

  Mass of Ions in am
   POMASS =  12.01 55.85  1.00 14.00 16.00
  Ionic Valenz
   ZVAL   =   4.00  8.00  1.00  5.00  6.00
  Atomic Wigner-Seitz radii
   RWIGS  =  -1.00 -1.00 -1.00 -1.00 -1.00
  virtual crystal weights 
   VCA    =   1.00  1.00  1.00  1.00  1.00
   NELECT =     600.0000    total number of electrons
   NUPDOWN=      -1.0000    fix difference up-down

 DOS related values:
   EMIN   =  10.00;   EMAX   =-10.00  energy-range for DOS
   EFERMI =   0.00
   ISMEAR =     0;   SIGMA  =   0.05  broadening in eV -4-tet -1-fermi 0-gaus

 Electronic relaxation 2 (details)
   IALGO  =     38    algorithm
   LDIAG  =      T    sub-space diagonalisation (order eigenvalues)
   LSUBROT=      F    optimize rotation matrix (better conditioning)
   TURBO    =      0    0=normal 1=particle mesh
   IRESTART =      0    0=no restart 2=restart with 2 vectors
   NREBOOT  =      0    no. of reboots
   NMIN     =      0    reboot dimension
   EREF     =   0.00    reference energy to select bands
   IMIX   =      4    mixing-type and parameters
     AMIX     =   0.40;   BMIX     =  1.00
     AMIX_MAG =   1.60;   BMIX_MAG =  1.00
     AMIN     =   0.10
     WC   =   100.;   INIMIX=   1;  MIXPRE=   1;  MAXMIX= -45

 Intra band minimization:
   WEIMIN = 0.0010     energy-eigenvalue tresh-hold
   EBREAK =  0.65E-09  absolut break condition
   DEPER  =   0.30     relativ break condition  

   TIME   =   0.40     timestep for ELM

  volume/ion in A,a.u.               =      27.89       188.22
  Fermi-wavevector in a.u.,A,eV,Ry     =   0.845782  1.598297  9.732893  0.715347
  Thomas-Fermi vector in A             =   1.961025
 
 Write flags
   LWAVE        =      T    write WAVECAR
   LDOWNSAMPLE  =      F    k-point downsampling of WAVECAR
   LCHARG       =      T    write CHGCAR
   LVTOT        =      F    write LOCPOT, total local potential
   LVHAR        =      F    write LOCPOT, Hartree potential only
   LELF         =      F    write electronic localiz. function (ELF)
   LORBIT       =     11    0 simple, 1 ext, 2 COOP (PROOUT), +10 PAW based schemes


 Dipole corrections
   LMONO  =      F    monopole corrections only (constant potential shift)
   LDIPOL =      F    correct potential (dipole corrections)
   IDIPOL =      0    1-x, 2-y, 3-z, 4-all directions 
   EPSILON=  1.0000000 bulk dielectric constant

 Exchange correlation treatment:
   GGA     =    PE    GGA type
   LEXCH   =     8    internal setting for exchange type
   VOSKOWN=      0    Vosko Wilk Nusair interpolation
   LHFCALC =     F    Hartree Fock is set to
   LHFONE  =     F    Hartree Fock one center treatment
   AEXX    =    0.0000 exact exchange contribution

 Linear response parameters
   LEPSILON=     F    determine dielectric tensor
   LRPA    =     F    only Hartree local field effects (RPA)
   LNABLA  =     F    use nabla operator in PAW spheres
   LVEL    =     F    velocity operator in full k-point grid
   LINTERFAST=   F  fast interpolation
   KINTER  =     0    interpolate to denser k-point grid
   CSHIFT  =0.1000    complex shift for real part using Kramers Kronig
   OMEGAMAX=  -1.0    maximum frequency
   DEG_THRESHOLD= 0.2000000E-02 threshold for treating states as degnerate
   RTIME   =   -0.100 relaxation time in fs
  (WPLASMAI=    0.000 imaginary part of plasma frequency in eV, 0.658/RTIME)
   DFIELD  = 0.0000000 0.0000000 0.0000000 field for delta impulse in time
 
 Orbital magnetization related:
   ORBITALMAG=     F  switch on orbital magnetization
   LCHIMAG   =     F  perturbation theory with respect to B field
   DQ        =  0.001000  dq finite difference perturbation B field
   LLRAUG    =     F  two centre corrections for induced B field



--------------------------------------------------------------------------------------------------------


 conjugate gradient relaxation of ions
 charge density and potential will be updated during run
 spin polarized calculation
 Variant of blocked Davidson
 Davidson routine will perform the subspace rotation
 perform sub-space diagonalisation
    after iterative eigenvector-optimisation
 modified Broyden-mixing scheme, WC =      100.0
 initial mixing is a Kerker type mixing with AMIX =  0.4000 and BMIX =      1.0000
 Hartree-type preconditioning will be used
 using additional bands           84
 real space projection scheme for non local part
 use partial core corrections
 calculate Harris-corrections to forces 
   (improved forces if not selfconsistent)
 use gradient corrections 
 use of overlap-Matrix (Vanderbilt PP)
 Gauss-broadening in eV      SIGMA  =   0.05


--------------------------------------------------------------------------------------------------------


  energy-cutoff  :      600.00
  volume of cell :     4351.11
      direct lattice vectors                 reciprocal lattice vectors
    24.774838438  0.002793691 -0.016013943     0.040363548 -0.000000724  0.000023979
    -0.001062954 24.929452513  2.542088984    -0.000004931  0.040176407 -0.000619893
    -0.004189802  0.108869028  7.056033014     0.000093383 -0.014474424  0.141946077

  length of vectors
    24.774843771 25.058727424  7.056874090     0.040363555  0.040181189  0.142682187


 
 k-points in units of 2pi/SCALE and weight: read from INCAR                         
   0.00000000  0.00000000  0.00000000       0.333
   0.00003113 -0.00482481  0.04731536       0.667
 
 k-points in reciprocal lattice and weights: read from INCAR                         
   0.00000000  0.00000000  0.00000000       0.333
   0.00000000 -0.00000000  0.33333333       0.667
 
 position of ions in fractional coordinates (direct lattice) 
   0.90704401  0.97174398  0.09577010
   0.92523275  0.97887367  0.40060844
   0.90690567  0.80966513  0.91299094
   0.59291473  0.47170154  0.59881979
   0.57474137  0.30183914  0.11003973
   0.07458948  0.80172006  0.10797319
   0.57433111  0.47918211  0.90297967
   0.59329897  0.30954525  0.41424776
   0.42533140  0.47899313  0.40191968
   0.09272459  0.80894533  0.41279222
   0.07504850  0.97905003  0.89923145
   0.42557442  0.30165819  0.60886425
   0.92503498  0.80177319  0.60878987
   0.09327027  0.97113455  0.59513729
   0.40698220  0.30916747  0.91301453
   0.40666844  0.47125892  0.09783934
   0.81999162  0.04037530  0.41936376
   0.84513516  0.07750654  0.08423201
   0.84478518  0.70394502  0.92715663
   0.65423685  0.57766661  0.58684144
   0.65524393  0.20382316  0.42694464
   0.17986179  0.74019329  0.09029091
   0.67963058  0.54076123  0.92225841
   0.68029003  0.24084473  0.09153881
   0.31979217  0.54014331  0.42043213
   0.15449186  0.70310914  0.42529248
   0.15544457  0.07689265  0.58170308
   0.34550053  0.20325078  0.92456679
   0.81945785  0.74069675  0.59153032
   0.18071083  0.03990507  0.91711550
   0.32024033  0.24029304  0.58916425
   0.34508846  0.57717176  0.08528777
   0.77805824  0.08252380  0.41732622
   0.80291810  0.11906430  0.09034223
   0.80243854  0.66246992  0.92184097
   0.69655348  0.61913700  0.59234741
   0.69748820  0.16229204  0.42088982
   0.22194816  0.69818633  0.09304615
   0.72166614  0.58283680  0.91956925
   0.72232542  0.19881806  0.09381219
   0.27769993  0.58214699  0.41767889
   0.19687244  0.66168129  0.41989595
   0.19773300  0.11839423  0.58771017
   0.30330110  0.16169584  0.91841428
   0.77732178  0.69872889  0.59447807
   0.22274812  0.08194169  0.91489905
   0.27829992  0.19816931  0.59118981
   0.30274861  0.61862375  0.09074807
   0.74565337  0.08481183  0.57758636
   0.79477076  0.15700646  0.93191510
   0.79439247  0.62465409  0.08063215
   0.70458699  0.65691074  0.43349346
   0.70561192  0.12432859  0.57926159
   0.25448945  0.69589933  0.93314120
   0.75424864  0.58521134  0.07960431
   0.75471674  0.19650952  0.93356713
   0.24510479  0.58437784  0.57748950
   0.20492477  0.62377343  0.57849601
   0.20579947  0.15629846  0.42918881
   0.29529083  0.12375430  0.07684114
   0.74473761  0.69633818  0.43443732
   0.25526074  0.08423044  0.07516327
   0.24585014  0.19580938  0.43082283
   0.29465184  0.65648864  0.93206995
   0.89191572  0.99966568  0.24865541
   0.89171022  0.78138864  0.76100255
   0.60774930  0.49984635  0.75151781
   0.60826483  0.28139618  0.26184923
   0.10781256  0.78090815  0.26018964
   0.39178436  0.49943999  0.25024891
   0.10844996  0.99938610  0.74718021
   0.39211539  0.28105360  0.76028615
   0.77054354  0.12053708  0.25469632
   0.76987478  0.66092647  0.75768528
   0.72910637  0.62068577  0.75649921
   0.72987523  0.16085867  0.25654975
   0.22943764  0.66027846  0.25598194
   0.27022822  0.62006582  0.25475432
   0.23018230  0.11990427  0.75214828
   0.27084578  0.16022266  0.75399766
   0.99302882  0.89063234  0.00384798
   0.00701727  0.89024473  0.50413768
   0.50721012  0.39044405  0.50600282
   0.49276483  0.39031728  0.00599812
   0.32077601  0.12567518  0.20178560
   0.74761900  0.55578540  0.20370302
   0.74797861  0.22600700  0.80970152
   0.75233219  0.05526201  0.70135244
   0.75138825  0.72571823  0.31023059
   0.67903649  0.65492174  0.30878254
   0.17933799  0.62561747  0.70300301
   0.18033719  0.15436609  0.30420519
   0.81994425  0.62659004  0.20538544
   0.25251363  0.22529791  0.30692995
   0.25175087  0.55487716  0.70141563
   0.24780616  0.72536050  0.80914553
   0.32016978  0.65458690  0.80743103
   0.68018487  0.12619993  0.70416619
   0.82014355  0.15509612  0.80691324
   0.24864619  0.05469337  0.19894091
   0.57250298  0.48947602  0.04771038
   0.42739084  0.29136475  0.46413066
   0.39124909  0.47485074  0.95305478
   0.10783784  0.80515316  0.55801849
   0.07338437  0.98944510  0.04387589
   0.39160539  0.30546167  0.05773867
   0.89190403  0.97557453  0.95057468
   0.92664603  0.79138285  0.46413654
   0.10845768  0.97456247  0.45018910
   0.60828296  0.47542244  0.45408939
   0.57296662  0.29149008  0.96533965
   0.92691992  0.98892231  0.54567980
   0.60867400  0.30594448  0.55908728
   0.42719199  0.48939238  0.54652377
   0.07290101  0.79159685  0.96299087
   0.89177851  0.80620478  0.05803008
   0.94673688  0.93655193  0.15362350
   0.95791863  0.94101261  0.34218411
   0.94663069  0.84468214  0.85441697
   0.55328771  0.43645978  0.65630012
   0.54206363  0.33975897  0.16810190
   0.04201058  0.83973113  0.16599587
   0.54184991  0.44113005  0.84450697
   0.55348293  0.34456947  0.35630465
   0.45794745  0.44102865  0.34383309
   0.05317070  0.84424393  0.35453120
   0.04226590  0.94111001  0.84162578
   0.45812385  0.33963823  0.66743298
   0.95779332  0.83974935  0.66627653
   0.05347971  0.93616643  0.65351360
   0.44668764  0.34432589  0.85560580
   0.44646410  0.43620087  0.15568176
   0.85154087  0.04002568  0.25071481
   0.85120691  0.74112832  0.75992779
   0.64802797  0.54027507  0.75356718
   0.64872397  0.24113735  0.26011951
   0.14817704  0.74053508  0.25860917
   0.35138902  0.53975959  0.25196599
   0.14898518  0.03960416  0.74859038
   0.35180332  0.24067340  0.75799357
   0.82766888  0.00693119  0.55866774
   0.87352917  0.07479436  0.94282215
   0.87327512  0.70682478  0.06845535
   0.62559355  0.57493821  0.44583571
   0.62692414  0.20664383  0.56845455
   0.17215081  0.77352937  0.95066641
   0.67192937  0.50750769  0.06203424
   0.67251163  0.27422997  0.95212609
   0.32756551  0.50685003  0.56009835
   0.12589665  0.70574956  0.56624208
   0.12701050  0.07412866  0.44017047
   0.37395582  0.20600698  0.06601558
   0.82714566  0.77392720  0.45167978
   0.17305642  0.00652194  0.05652848
   0.32793343  0.27369138  0.44978435
   0.37366498  0.57448926  0.94432680
 
 position of ions in cartesian coordinates  (Angst):
  22.47043462 24.23800584  3.13149134
  22.91977292 24.44898322  5.30027374
  22.46375545 20.28643856  8.48581189
  14.68635623 11.82611057  5.41490462
  14.23834282  7.53827019  1.53454208
   1.84663783 19.99840544  2.79871166
  14.22466788 12.04565879  7.58038064
  14.69682142  7.76354988  3.70033635
  10.53532356 11.98598145  4.04679048
   2.29464737 20.21176352  4.96760166
   1.85450620 24.50528937  8.83263728
  10.54066589  7.58764887  5.05619308
  22.91418932 20.05662939  6.31900680
   2.30723009 24.27490528  6.66652520
  10.07876419  7.80791182  7.22167448
  10.07423393 11.76001455  1.88182737
  20.31335983  1.05448070  3.04855088
  20.93765172  1.94372681  0.77783843
  20.92478351 17.65226262  8.31801029
  16.20553939 14.46662884  5.59877555
  16.23155703  5.12951150  3.52017903
   4.45488167 18.46294582  2.51585258
  16.83329885 13.58318535  7.87126536
  16.85343596  6.01599343  1.24725546
   7.92046360 13.51214237  4.33455420
   3.82498161 17.57485865  4.78576972
   3.84859524  1.98065544  4.29749480
   8.55563004  5.16855264  7.03492254
  20.29867011 18.53185298  6.04365173
   4.47319664  1.09516184  6.56974561
   7.93117860  6.05541030  4.76288039
   8.54853990 14.39882518  2.06348903
  19.27443103  2.10488072  3.14199067
  19.89166104  2.98028649  0.92727190
  19.87571858 16.61761410  8.17574758
  17.25385989 15.50118059  5.74236966
  17.27822154  4.09362213  3.37120371
   5.49759773 17.41615295  2.42783423
  17.87468970 14.63193112  7.95857729
  17.89489112  4.96865649  1.15578784
   6.87760218 14.55885379  4.42257844
   4.87502028 16.54161597  4.64169971
   4.89621495  3.01603921  4.44470452
   7.51021593  4.13182290  6.88654965
  19.25478797 17.48582048  5.95843990
   5.51462835  2.14298794  6.66029391
   6.89214789  5.00539226  4.67076217
   7.49951011 15.43267682  2.20806978
  18.47093158  2.17927686  4.27912677
  19.68624579  4.01776205  6.96202067
  19.67994334 15.58328203  2.14414802
  17.45351428 16.42558760  4.71738652
  17.47886209  3.16447867  4.39204361
   6.30028568 17.45069056  8.34923778
  18.68543251 14.59977181  2.03727141
  18.69386487  5.00261981  7.07473918
   6.06939077 14.63177519  5.55640039
   5.07389126 15.61388286  5.66429283
   5.09668416  3.94373539  3.42239938
   7.31532923  3.09431746  0.85205926
  18.44819359 17.40870694  4.82363149
   6.32363917  2.10871483  0.74038805
   6.08888442  4.92901072  3.53372792
   7.29534862 16.46819900  8.24085031
  22.09496353 24.95068072  4.28147684
  22.08795761 19.56493176  7.34173876
  15.05321061 12.54441067  6.56365591
  15.06826670  7.04525923  2.55321023
   2.66911846 19.49624051  3.81931822
   9.70481486 12.47910450  3.02911146
   2.68263732 24.99579601  7.81091992
   9.71111119  7.09037949  6.07278811
  19.08889637  3.03480464  2.09122221
  19.06964614 16.56117421  7.01405747
  18.05966327 15.55775258  6.90404599
  18.08129505  4.04008798  2.20745237
   5.68250608 16.48888989  3.48102943
   6.69313397 15.48639109  3.36948993
   5.69945044  3.07167658  5.60830431
   6.70683094  4.07710688  5.72319535
  24.60116575 22.20616977  2.27531584
   0.17079328 22.24821839  5.82018107
  12.56351366  9.79006153  4.55479370
  12.20772899  9.73242571  1.02665311
   7.94619490  3.15587772  1.73814644
  18.52069574 13.87969127  2.83821887
  18.52741640  5.72447193  6.27583246
  18.63591121  1.45610900  5.07719914
  18.61345141 18.12763180  4.02180493
  16.82102942 16.36235436  3.83277509
   4.43945929 15.67333738  6.54791585
   4.46638617  3.88188447  2.53600632
  20.31245965 15.64519747  3.02892357
   6.25445899  5.65067421  2.73439149
   6.23355851 13.90984967  6.35572745
   6.13519651 18.17162341  7.54932018
   7.92807570 16.40729179  7.35615099
  16.84838571  3.22465720  5.27853891
  20.31537830  3.95660048  6.07474088
   6.15927748  1.38582897  1.53878723
  14.18294865 12.20916271  1.57176960
  10.58628467  7.31528710  4.00875220
   9.68863521 11.94262013  7.92563339
   2.66847122 20.13307965  5.98244097
   1.81685024 24.67130642  2.82367206
   9.70139373  7.62237216  1.17764557
  22.09175845 24.42651865  9.17300068
  22.95471980 19.78185997  5.27188911
   2.68409943 24.34462354  5.65223682
  15.06770418 11.90315684  4.40289488
  14.19080111  7.37338444  7.54328675
  22.96095378 24.71528902  6.34941955
  15.07713245  7.68959623  4.71292912
  10.58080254 12.26097714  5.09352774
   1.80123464 19.83911973  8.80603758
  22.09256846 20.10705272  2.44462559
  23.45361401 23.36709672  3.44960984
  23.72984539 23.49885850  4.79126012
  23.44814475 21.15312755  8.16089224
  13.70439995 10.95369984  5.73153459
  13.42847340  8.48982047  2.04114950
   1.03921734 20.95222639  3.30527081
  13.42023680 11.09058504  7.07158376
  13.71059107  8.63026494  3.38116016
  11.34366476 11.03331491  3.53989819
   1.31491270 21.08528498  4.64687560
   1.04260422 23.55310225  8.33024781
  11.34678704  8.54093769  5.56548335
  23.72549070 21.00970423  6.82064874
   1.32121792 23.40941337  6.99017548
  11.06266321  8.67825280  6.90533662
  11.05996009 10.89244518  2.20020742
  21.09569442  1.02749240  1.85716433
  21.08454186 18.56103397  7.23245857
  16.05105668 13.55261218  6.68024471
  16.07068539  6.04155345  2.43801582
   3.66919151 18.48970262  3.70488798
   8.70397686 13.48432397  3.14437015
   3.68790513  1.06922445  5.38036990
   8.71243873  6.08336087  5.95460711
  20.50301480  0.23592470  3.94634345
  21.63751440  1.96966706  6.82872950
  21.63421191 17.63064702  2.26585010
  15.49650005 14.38318011  4.59735733
  15.52934293  5.21515610  4.52630154
   4.26020315 19.38764275  8.67155723
  16.64614222 12.66051951  1.71708512
  16.65708632  6.94193873  7.40458053
   8.11249702 12.69738617  5.23528470
   3.11594653 17.65594817  5.78748491
   3.14474170  1.89626277  3.29226506
   9.26419941  5.14387301  0.98350770
  20.48968507 19.34506603  5.14121340
   4.28720095  0.16922596  0.41267487
   8.12232221  6.87285993  3.86418954
   9.25292224 14.42555465  8.11762007
 


--------------------------------------------------------------------------------------------------------


 k-point  1 :   0.0000 0.0000 0.0000  plane waves:  145073
 k-point  2 :   0.0000-0.0000 0.3333  plane waves:  145220

 maximum and minimum number of plane-waves per node :     36373    36210

 maximum number of plane-waves:    145220
 maximum index in each direction: 
   IXMAX=   49   IYMAX=   50   IZMAX=   14
   IXMIN=  -49   IYMIN=  -50   IZMIN=  -14


 real space projection operators:
  total allocation   :      11141.10 KBytes
  max/ min on nodes  :       2816.84       2755.29


 parallel 3D FFT for wavefunctions:
    minimum data exchange during FFTs selected (reduces bandwidth)
 parallel 3D FFT for charge:
    minimum data exchange during FFTs selected (reduces bandwidth)


 total amount of memory used by VASP MPI-rank0   102815. kBytes
=======================================================================

   base      :      30000. kBytes
   nonlr-proj:       6131. kBytes
   fftplans  :       9928. kBytes
   grid      :      27355. kBytes
   one-center:       1213. kBytes
   wavefun   :      28188. kBytes
 
     INWAV:  cpu time    0.0001: real time    0.0005
 Broyden mixing: mesh for mixing (old mesh)
   NGX = 99   NGY =101   NGZ = 29
  (NGX  =300   NGY  =300   NGZ  = 84)
  gives a total of 289971 points

 initial charge density was supplied:
 charge density of overlapping atoms calculated
 number of electron     600.0000000 magnetization       0.0000000
 keeping initial charge density in first step


--------------------------------------------------------------------------------------------------------


 Maximum index for non-local projection operator          644
 Maximum index for augmentation-charges          451 (set IRDMAX)


--------------------------------------------------------------------------------------------------------


 First call to EWALD:  gamma=   0.109
 Maximum number of real-space cells 2x 2x 6
 Maximum number of reciprocal cells 4x 4x 1

    FEWALD:  cpu time    0.0156: real time    0.0157


--------------------------------------- Iteration      1(   1)  ---------------------------------------


    POTLOK:  cpu time    0.4135: real time    0.5417
    SETDIJ:  cpu time    0.0697: real time    0.0701
     EDDAV:  cpu time   11.7758: real time   11.8927
       DOS:  cpu time    0.0033: real time    0.0034
    --------------------------------------------
      LOOP:  cpu time   12.2625: real time   12.5080

 eigenvalue-minimisations  :  3072
 total energy-change (2. order) : 0.5722115E+04  (-0.2592273E+05)
 number of electron     600.0000000 magnetization       0.0000000
 augmentation part      600.0000000 magnetization       0.0000000

 Free energy of the ion-electron system (eV)
  ---------------------------------------------------
  alpha Z        PSCENC =       407.36993888
  Ewald energy   TEWEN  =     41917.37939342
  -Hartree energ DENC   =    -64760.01080623
  -exchange      EXHF   =         0.00000000
  -V(xc)+E(xc)   XCENC  =      2062.82518877
  PAW double counting   =     21422.65208726   -21556.96843230
  entropy T*S    EENTRO =        -0.04696389
  eigenvalues    EBANDS =     -1586.68981776
  atomic energy  EATOM  =     27815.60422923
  Solvation  Ediel_sol  =         0.00000000
  ---------------------------------------------------
  free energy    TOTEN  =      5722.11481737 eV

  energy without entropy =     5722.16178127  energy(sigma->0) =     5722.13829932


--------------------------------------------------------------------------------------------------------




--------------------------------------- Iteration      1(   2)  ---------------------------------------


     EDDAV:  cpu time   16.3997: real time   16.4075
       DOS:  cpu time    0.0027: real time    0.0027
    --------------------------------------------
      LOOP:  cpu time   16.4023: real time   16.4101

 eigenvalue-minimisations  :  4576
 total energy-change (2. order) :-0.5909190E+04  (-0.5695094E+04)
 number of electron     600.0000000 magnetization       0.0000000
 augmentation part      600.0000000 magnetization       0.0000000

 Free energy of the ion-electron system (eV)
  ---------------------------------------------------
  alpha Z        PSCENC =       407.36993888
  Ewald energy   TEWEN  =     41917.37939342
  -Hartree energ DENC   =    -64760.01080623
  -exchange      EXHF   =         0.00000000
  -V(xc)+E(xc)   XCENC  =      2062.82518877
  PAW double counting   =     21422.65208726   -21556.96843230
  entropy T*S    EENTRO =        -0.02407293
  eigenvalues    EBANDS =     -7495.90282380
  atomic energy  EATOM  =     27815.60422923
  Solvation  Ediel_sol  =         0.00000000
  ---------------------------------------------------
  free energy    TOTEN  =      -187.07529770 eV

  energy without entropy =     -187.05122477  energy(sigma->0) =     -187.06326123


--------------------------------------------------------------------------------------------------------




--------------------------------------- Iteration      1(   3)  ---------------------------------------


     EDDAV:  cpu time   13.6289: real time   13.6321
       DOS:  cpu time    0.0022: real time    0.0022
    --------------------------------------------
      LOOP:  cpu time   13.6311: real time   13.6343

 eigenvalue-minimisations  :  3744
 total energy-change (2. order) :-0.1068212E+04  (-0.1058963E+04)
 number of electron     600.0000000 magnetization       0.0000000
 augmentation part      600.0000000 magnetization       0.0000000

 Free energy of the ion-electron system (eV)
  ---------------------------------------------------
  alpha Z        PSCENC =       407.36993888
  Ewald energy   TEWEN  =     41917.37939342
  -Hartree energ DENC   =    -64760.01080623
  -exchange      EXHF   =         0.00000000
  -V(xc)+E(xc)   XCENC  =      2062.82518877
  PAW double counting   =     21422.65208726   -21556.96843230
  entropy T*S    EENTRO =        -0.05926080
  eigenvalues    EBANDS =     -8564.07917884
  atomic energy  EATOM  =     27815.60422923
  Solvation  Ediel_sol  =         0.00000000
  ---------------------------------------------------
  free energy    TOTEN  =     -1255.28684060 eV

  energy without entropy =    -1255.22757981  energy(sigma->0) =    -1255.25721021


--------------------------------------------------------------------------------------------------------




--------------------------------------- Iteration      1(   4)  ---------------------------------------


     EDDAV:  cpu time   16.1426: real time   16.1455
       DOS:  cpu time    0.0023: real time    0.0023
    --------------------------------------------
      LOOP:  cpu time   16.1449: real time   16.1478

 eigenvalue-minimisations  :  4544
 total energy-change (2. order) :-0.4548656E+02  (-0.4514124E+02)
 number of electron     600.0000000 magnetization       0.0000000
 augmentation part      600.0000000 magnetization       0.0000000

 Free energy of the ion-electron system (eV)
  ---------------------------------------------------
  alpha Z        PSCENC =       407.36993888
  Ewald energy   TEWEN  =     41917.37939342
  -Hartree energ DENC   =    -64760.01080623
  -exchange      EXHF   =         0.00000000
  -V(xc)+E(xc)   XCENC  =      2062.82518877
  PAW double counting   =     21422.65208726   -21556.96843230
  entropy T*S    EENTRO =        -0.08882571
  eigenvalues    EBANDS =     -8609.53617133
  atomic energy  EATOM  =     27815.60422923
  Solvation  Ediel_sol  =         0.00000000
  ---------------------------------------------------
  free energy    TOTEN  =     -1300.77339801 eV

  energy without entropy =    -1300.68457230  energy(sigma->0) =    -1300.72898516


--------------------------------------------------------------------------------------------------------




--------------------------------------- Iteration      1(   5)  ---------------------------------------


     EDDAV:  cpu time   14.2281: real time   14.2294
       DOS:  cpu time    0.0026: real time    0.0026
    --------------------------------------------
      LOOP:  cpu time   14.2307: real time   14.2320

 eigenvalue-minimisations  :  3936
 total energy-change (2. order) :-0.8100163E+00  (-0.8048893E+00)
 number of electron     600.0000000 magnetization       0.0000000
 augmentation part      600.0000000 magnetization       0.0000000

 Free energy of the ion-electron system (eV)
  ---------------------------------------------------
  alpha Z        PSCENC =       407.36993888
  Ewald energy   TEWEN  =     41917.37939342
  -Hartree energ DENC   =    -64760.01080623
  -exchange      EXHF   =         0.00000000
  -V(xc)+E(xc)   XCENC  =      2062.82518877
  PAW double counting   =     21422.65208726   -21556.96843230
  entropy T*S    EENTRO =        -0.08864690
  eigenvalues    EBANDS =     -8610.34636640
  atomic energy  EATOM  =     27815.60422923
  Solvation  Ediel_sol  =         0.00000000
  ---------------------------------------------------
  free energy    TOTEN  =     -1301.58341427 eV

  energy without entropy =    -1301.49476737  energy(sigma->0) =    -1301.53909082


--------------------------------------------------------------------------------------------------------




--------------------------------------- Iteration      1(   6)  ---------------------------------------


     EDDAV:  cpu time   17.2761: real time   17.2775
       DOS:  cpu time    0.0022: real time    0.0022
    --------------------------------------------
      LOOP:  cpu time   17.2783: real time   17.2797

 eigenvalue-minimisations  :  4896
 total energy-change (2. order) :-0.5190923E-01  (-0.5182361E-01)
 number of electron     600.0000000 magnetization       0.0000000
 augmentation part      600.0000000 magnetization       0.0000000

 Free energy of the ion-electron system (eV)
  ---------------------------------------------------
  alpha Z        PSCENC =       407.36993888
  Ewald energy   TEWEN  =     41917.37939342
  -Hartree energ DENC   =    -64760.01080623
  -exchange      EXHF   =         0.00000000
  -V(xc)+E(xc)   XCENC  =      2062.82518877
  PAW double counting   =     21422.65208726   -21556.96843230
  entropy T*S    EENTRO =        -0.08864786
  eigenvalues    EBANDS =     -8610.39827468
  atomic energy  EATOM  =     27815.60422923
  Solvation  Ediel_sol  =         0.00000000
  ---------------------------------------------------
  free energy    TOTEN  =     -1301.63532351 eV

  energy without entropy =    -1301.54667565  energy(sigma->0) =    -1301.59099958


--------------------------------------------------------------------------------------------------------




--------------------------------------- Iteration      1(   7)  ---------------------------------------


     EDDAV:  cpu time   14.3272: real time   14.3286
       DOS:  cpu time    0.0023: real time    0.0023
    --------------------------------------------
      LOOP:  cpu time   14.3295: real time   14.3309

 eigenvalue-minimisations  :  3968
 total energy-change (2. order) :-0.9608286E-03  (-0.9587582E-03)
 number of electron     600.0000000 magnetization       0.0000000
 augmentation part      600.0000000 magnetization       0.0000000

 Free energy of the ion-electron system (eV)
  ---------------------------------------------------
  alpha Z        PSCENC =       407.36993888
  Ewald energy   TEWEN  =     41917.37939342
  -Hartree energ DENC   =    -64760.01080623
  -exchange      EXHF   =         0.00000000
  -V(xc)+E(xc)   XCENC  =      2062.82518877
  PAW double counting   =     21422.65208726   -21556.96843230
  entropy T*S    EENTRO =        -0.08865240
  eigenvalues    EBANDS =     -8610.39923097
  atomic energy  EATOM  =     27815.60422923
  Solvation  Ediel_sol  =         0.00000000
  ---------------------------------------------------
  free energy    TOTEN  =     -1301.63628434 eV

  energy without entropy =    -1301.54763194  energy(sigma->0) =    -1301.59195814


--------------------------------------------------------------------------------------------------------




--------------------------------------- Iteration      1(   8)  ---------------------------------------


     EDDAV:  cpu time   17.6596: real time   17.6610
       DOS:  cpu time    0.0023: real time    0.0023
    CHARGE:  cpu time    0.6657: real time    0.6700
    MIXING:  cpu time    0.0151: real time    0.0177
    --------------------------------------------
      LOOP:  cpu time   18.3427: real time   18.3510

 eigenvalue-minimisations  :  5024
 total energy-change (2. order) :-0.4514812E-04  (-0.4512168E-04)
 number of electron     599.9999911 magnetization      -0.0006326
 augmentation part       32.4290673 magnetization       0.0032734

 Broyden mixing:
  rms(total) = 0.95894E+01    rms(broyden)= 0.95889E+01
  rms(prec ) = 0.10540E+02
  weight for this iteration     100.00

 Free energy of the ion-electron system (eV)
  ---------------------------------------------------
  alpha Z        PSCENC =       407.36993888
  Ewald energy   TEWEN  =     41917.37939342
  -Hartree energ DENC   =    -64760.01080623
  -exchange      EXHF   =         0.00000000
  -V(xc)+E(xc)   XCENC  =      2062.82518877
  PAW double counting   =     21422.65208726   -21556.96843230
  entropy T*S    EENTRO =        -0.08865249
  eigenvalues    EBANDS =     -8610.39927603
  atomic energy  EATOM  =     27815.60422923
  Solvation  Ediel_sol  =         0.00000000
  ---------------------------------------------------
  free energy    TOTEN  =     -1301.63632949 eV

  energy without entropy =    -1301.54767700  energy(sigma->0) =    -1301.59200324


--------------------------------------------------------------------------------------------------------




--------------------------------------- Iteration      1(   9)  ---------------------------------------


    POTLOK:  cpu time    0.3571: real time    0.3571
    SETDIJ:  cpu time    0.0572: real time    0.0572
     EDDAV:  cpu time   16.8021: real time   16.8038
       DOS:  cpu time    0.0038: real time    0.0038
    CHARGE:  cpu time    0.6424: real time    0.6434
    MIXING:  cpu time    0.0193: real time    0.0294
    --------------------------------------------
      LOOP:  cpu time   17.8819: real time   17.8947

 eigenvalue-minimisations  :  4736
 total energy-change (2. order) :-0.3231270E+03  (-0.3888111E+03)
 number of electron     599.9999980 magnetization      -0.0055492
 augmentation part       55.9614065 magnetization       0.4048825

 Broyden mixing:
  rms(total) = 0.32671E+02    rms(broyden)= 0.32671E+02
  rms(prec ) = 0.33138E+02
  weight for this iteration     100.00

 eigenvalues of (default mixing * dielectric matrix)
  average eigenvalue GAMMA=   0.0926
  0.0926

 Free energy of the ion-electron system (eV)
  ---------------------------------------------------
  alpha Z        PSCENC =       407.36993888
  Ewald energy   TEWEN  =     41917.37939342
  -Hartree energ DENC   =    -65129.83584471
  -exchange      EXHF   =         0.00000000
  -V(xc)+E(xc)   XCENC  =      2100.55654672
  PAW double counting   =     32160.95737475   -32255.50807794
[...]
     15.06770     11.90316      4.40289        -0.003769     -0.001559     -0.004588
     14.19080      7.37338      7.54329        -0.000125      0.002994     -0.003731
     22.96095     24.71529      6.34942        -0.006073      0.002817      0.004335
     15.07713      7.68960      4.71293        -0.002788      0.003552      0.005174
     10.58080     12.26098      5.09353        -0.001257     -0.002236      0.007821
      1.80123     19.83912      8.80604         0.006949     -0.001560     -0.002075
     22.09257     20.10705      2.44463        -0.000860     -0.002021     -0.003496
     23.45361     23.36710      3.44961        -0.002751      0.004529     -0.002396
     23.72985     23.49886      4.79126        -0.003003      0.004353      0.001786
     23.44814     21.15313      8.16089        -0.000127     -0.002331      0.002392
     13.70440     10.95370      5.73153        -0.003153     -0.001041      0.006030
     13.42847      8.48982      2.04115        -0.000255     -0.001899      0.004519
      1.03922     20.95223      3.30527         0.002237     -0.003816     -0.002720
     13.42024     11.09059      7.07158        -0.000088      0.001638     -0.006224
     13.71059      8.63026      3.38116        -0.001730      0.002736     -0.006720
     11.34366     11.03331      3.53990         0.001979     -0.001674     -0.004503
      1.31491     21.08528      4.64688         0.000685     -0.002895      0.001017
      1.04260     23.55310      8.33025         0.001867      0.003475      0.001620
     11.34679      8.54094      5.56548         0.002338      0.001946      0.003159
     23.72549     21.00970      6.82065        -0.001863     -0.002708     -0.000242
      1.32122     23.40941      6.99018         0.000713      0.002449      0.000986
     11.06266      8.67825      6.90534         0.001646      0.003190     -0.004151
     11.05996     10.89245      2.20021         0.003475     -0.003787      0.006220
     21.09569      1.02749      1.85716         0.004244     -0.001587     -0.002019
     21.08454     18.56103      7.23246         0.001589      0.001147     -0.000363
     16.05106     13.55261      6.68024        -0.004164     -0.006310     -0.000152
     16.07069      6.04155      2.43802        -0.005086      0.004772      0.000179
      3.66919     18.48970      3.70489        -0.002042      0.001940      0.002024
      8.70398     13.48432      3.14437         0.002488     -0.000744     -0.003625
      3.68791      1.06922      5.38037        -0.003179     -0.002349     -0.000997
      8.71244      6.08336      5.95461         0.004634      0.003009      0.004522
     20.50301      0.23592      3.94634         0.002200     -0.002664      0.004240
     21.63751      1.96967      6.82873        -0.003237     -0.000609      0.001080
     21.63421     17.63065      2.26585        -0.000387      0.000561     -0.002570
     15.49650     14.38318      4.59736        -0.000554      0.000489     -0.004210
     15.52934      5.21516      4.52630         0.001400     -0.003741      0.001050
      4.26020     19.38764      8.67156         0.000227     -0.000673     -0.001642
     16.64614     12.66052      1.71709        -0.000645     -0.002647      0.004337
     16.65709      6.94194      7.40458        -0.001030      0.000574     -0.004107
      8.11250     12.69739      5.23528         0.001619     -0.004432      0.006257
      3.11595     17.65595      5.78748         0.000533      0.000755     -0.002051
      3.14474      1.89626      3.29227         0.002835     -0.001014      0.006471
      9.26420      5.14387      0.98351         0.002680     -0.002147      0.006357
     20.48969     19.34507      5.14121         0.001202     -0.000585     -0.002925
      4.28720      0.16923      0.41267        -0.002575     -0.003347      0.003686
      8.12232      6.87286      3.86419        -0.001588     -0.000886     -0.002122
      9.25292     14.42555      8.11762         0.000182      0.000458      0.000095
 -----------------------------------------------------------------------------------
    total drift:                               -0.002159      0.020034      0.024531


--------------------------------------------------------------------------------------------------------



  FREE ENERGIE OF THE ION-ELECTRON SYSTEM (eV)
  ---------------------------------------------------
  free  energy   TOTEN  =     -1184.97470971 eV

  energy  without entropy=    -1184.93792163  energy(sigma->0) =    -1184.95631567
 


--------------------------------------------------------------------------------------------------------


    POTLOK:  cpu time    0.4304: real time    0.4304


--------------------------------------------------------------------------------------------------------




--------------------------------------------------------------------------------------------------------


  
 reached required accuracy - stopping structural energy minimisation
 writing wavefunctions
     LOOP+:  cpu time 1314.7744: real time 1333.1408
    4ORBIT:  cpu time    0.0000: real time    0.0000
 


 total charge     
 
# of ion       s       p       d       tot
------------------------------------------
    1        0.868   1.763   0.000   2.630
    2        0.869   1.766   0.000   2.635
    3        0.868   1.763   0.000   2.631
    4        0.868   1.763   0.000   2.631
    5        0.869   1.766   0.000   2.635
    6        0.869   1.766   0.000   2.634
    7        0.869   1.766   0.000   2.635
    8        0.868   1.763   0.000   2.631
    9        0.869   1.767   0.000   2.635
   10        0.868   1.763   0.000   2.631
   11        0.868   1.766   0.000   2.634
   12        0.869   1.767   0.000   2.635
   13        0.868   1.766   0.000   2.634
   14        0.868   1.763   0.000   2.631
   15        0.868   1.763   0.000   2.631
   16        0.868   1.763   0.000   2.631
   17        0.862   1.714   0.000   2.576
   18        0.862   1.715   0.000   2.577
   19        0.862   1.715   0.000   2.577
   20        0.862   1.715   0.000   2.578
   21        0.862   1.715   0.000   2.577
   22        0.862   1.714   0.000   2.576
   23        0.862   1.714   0.000   2.576
   24        0.862   1.714   0.000   2.576
   25        0.862   1.714   0.000   2.576
   26        0.862   1.715   0.000   2.577
   27        0.862   1.715   0.000   2.577
   28        0.862   1.716   0.000   2.578
   29        0.862   1.714   0.000   2.576
   30        0.862   1.714   0.000   2.576
   31        0.862   1.714   0.000   2.576
   32        0.862   1.715   0.000   2.577
   33        0.865   1.785   0.000   2.649
   34        0.864   1.785   0.000   2.650
   35        0.864   1.785   0.000   2.649
   36        0.865   1.786   0.000   2.650
   37        0.865   1.785   0.000   2.650
   38        0.865   1.785   0.000   2.649
   39        0.865   1.784   0.000   2.649
   40        0.865   1.785   0.000   2.650
   41        0.865   1.785   0.000   2.649
   42        0.865   1.785   0.000   2.650
   43        0.864   1.785   0.000   2.649
   44        0.865   1.785   0.000   2.650
   45        0.865   1.784   0.000   2.649
   46        0.865   1.785   0.000   2.649
   47        0.865   1.785   0.000   2.649
   48        0.865   1.785   0.000   2.650
   49        0.870   1.765   0.000   2.634
   50        0.870   1.765   0.000   2.635
   51        0.870   1.765   0.000   2.634
   52        0.870   1.765   0.000   2.635
   53        0.870   1.765   0.000   2.634
   54        0.870   1.765   0.000   2.635
   55        0.870   1.765   0.000   2.634
   56        0.870   1.765   0.000   2.635
   57        0.870   1.765   0.000   2.635
   58        0.870   1.765   0.000   2.635
   59        0.870   1.765   0.000   2.634
   60        0.870   1.765   0.000   2.635
   61        0.870   1.765   0.000   2.635
   62        0.870   1.765   0.000   2.635
   63        0.870   1.765   0.000   2.635
   64        0.870   1.765   0.000   2.635
   65        0.845   1.783   0.000   2.628
   66        0.845   1.783   0.000   2.628
   67        0.845   1.784   0.000   2.629
   68        0.845   1.784   0.000   2.629
   69        0.845   1.783   0.000   2.628
   70        0.845   1.784   0.000   2.629
   71        0.845   1.783   0.000   2.628
   72        0.845   1.784   0.000   2.629
   73        0.865   1.791   0.000   2.657
   74        0.865   1.791   0.000   2.657
   75        0.865   1.791   0.000   2.657
   76        0.865   1.791   0.000   2.657
   77        0.865   1.792   0.000   2.657
   78        0.865   1.791   0.000   2.657
   79        0.865   1.791   0.000   2.657
   80        0.865   1.791   0.000   2.657
   81        0.380   0.489   6.046   6.915
   82        0.380   0.490   6.047   6.916
   83        0.380   0.489   6.046   6.916
   84        0.380   0.489   6.046   6.915
   85        0.638   0.048   0.000   0.686
   86        0.638   0.048   0.000   0.686
   87        0.638   0.048   0.000   0.686
   88        0.638   0.048   0.000   0.686
   89        0.638   0.048   0.000   0.686
   90        0.638   0.048   0.000   0.687
   91        0.638   0.048   0.000   0.686
   92        0.638   0.048   0.000   0.687
   93        0.638   0.048   0.000   0.687
   94        0.638   0.048   0.000   0.686
   95        0.638   0.048   0.000   0.686
   96        0.638   0.048   0.000   0.686
   97        0.638   0.048   0.000   0.687
   98        0.638   0.048   0.000   0.686
   99        0.638   0.048   0.000   0.687
  100        0.638   0.048   0.000   0.686
  101        0.638   0.049   0.000   0.687
  102        0.638   0.049   0.000   0.688
  103        0.635   0.050   0.000   0.685
  104        0.635   0.050   0.000   0.685
  105        0.638   0.049   0.000   0.687
  106        0.635   0.050   0.000   0.685
  107        0.635   0.050   0.000   0.685
  108        0.638   0.049   0.000   0.687
  109        0.635   0.050   0.000   0.685
  110        0.635   0.050   0.000   0.685
  111        0.638   0.049   0.000   0.687
  112        0.638   0.049   0.000   0.688
  113        0.635   0.050   0.000   0.685
  114        0.638   0.049   0.000   0.688
  115        0.638   0.049   0.000   0.688
  116        0.635   0.050   0.000   0.685
  117        1.235   2.604   0.000   3.839
  118        1.236   2.606   0.000   3.842
  119        1.235   2.604   0.000   3.839
  120        1.235   2.603   0.000   3.839
  121        1.236   2.605   0.000   3.841
  122        1.236   2.605   0.000   3.841
  123        1.236   2.605   0.000   3.841
  124        1.235   2.604   0.000   3.839
  125        1.236   2.605   0.000   3.841
  126        1.235   2.604   0.000   3.839
  127        1.236   2.605   0.000   3.841
  128        1.236   2.605   0.000   3.841
  129        1.236   2.606   0.000   3.841
  130        1.235   2.604   0.000   3.839
  131        1.235   2.603   0.000   3.839
  132        1.235   2.603   0.000   3.839
  133        1.209   2.715   0.000   3.924
  134        1.209   2.715   0.000   3.924
  135        1.209   2.715   0.000   3.925
  136        1.209   2.715   0.000   3.925
  137        1.209   2.715   0.000   3.924
  138        1.209   2.716   0.000   3.925
  139        1.209   2.715   0.000   3.924
  140        1.209   2.716   0.000   3.925
  141        1.585   3.539   0.000   5.124
  142        1.585   3.538   0.000   5.123
  143        1.585   3.538   0.000   5.123
  144        1.585   3.538   0.000   5.123
  145        1.585   3.538   0.000   5.123
  146        1.585   3.539   0.000   5.124
  147        1.585   3.539   0.000   5.124
  148        1.585   3.539   0.000   5.124
  149        1.585   3.539   0.000   5.124
  150        1.585   3.538   0.000   5.123
  151        1.585   3.538   0.000   5.123
  152        1.585   3.538   0.000   5.123
  153        1.585   3.539   0.000   5.124
  154        1.585   3.539   0.000   5.124
  155        1.585   3.539   0.000   5.124
  156        1.585   3.538   0.000   5.123
--------------------------------------------------
tot        145.838 264.597  24.185 434.620
 


 magnetization (x)
 
# of ion       s       p       d       tot
------------------------------------------
    1        0.003   0.023   0.000   0.025
    2        0.003   0.023   0.000   0.026
    3        0.003   0.022   0.000   0.025
    4       -0.003  -0.023   0.000  -0.025
    5       -0.003  -0.023   0.000  -0.026
    6        0.003   0.023   0.000   0.026
    7       -0.003  -0.023   0.000  -0.026
    8       -0.003  -0.022   0.000  -0.025
    9       -0.003  -0.023   0.000  -0.026
   10        0.003   0.023   0.000   0.025
   11        0.003   0.023   0.000   0.026
   12       -0.003  -0.023   0.000  -0.026
   13        0.003   0.023   0.000   0.026
   14        0.003   0.022   0.000   0.025
   15       -0.003  -0.023   0.000  -0.025
   16       -0.003  -0.023   0.000  -0.025
   17        0.000   0.001   0.000   0.001
   18        0.000   0.001   0.000   0.001
   19        0.000   0.001   0.000   0.001
   20       -0.000  -0.001   0.000  -0.001
   21       -0.000  -0.001   0.000  -0.001
   22        0.000   0.001   0.000   0.001
   23       -0.000  -0.001   0.000  -0.001
   24       -0.000  -0.001   0.000  -0.001
   25       -0.000  -0.001   0.000  -0.001
   26        0.000   0.001   0.000   0.001
   27        0.000   0.001   0.000   0.001
   28       -0.000  -0.001   0.000  -0.001
   29        0.000   0.001   0.000   0.001
   30        0.000   0.001   0.000   0.001
   31       -0.000  -0.001   0.000  -0.001
   32       -0.000  -0.001   0.000  -0.001
   33       -0.000  -0.000   0.000  -0.000
   34       -0.000  -0.000   0.000  -0.000
   35       -0.000  -0.000   0.000  -0.000
   36        0.000   0.000   0.000   0.000
   37        0.000   0.000   0.000   0.000
   38       -0.000  -0.000   0.000  -0.000
   39        0.000   0.000   0.000   0.000
   40        0.000   0.000   0.000   0.000
   41        0.000   0.000   0.000   0.000
   42       -0.000  -0.000   0.000  -0.000
   43       -0.000  -0.000   0.000  -0.000
   44        0.000   0.000   0.000   0.000
   45       -0.000  -0.000   0.000  -0.000
   46       -0.000  -0.000   0.000  -0.000
   47        0.000   0.000   0.000   0.000
   48        0.000   0.000   0.000   0.000
   49        0.000   0.000   0.000   0.000
   50        0.000   0.000   0.000   0.000
   51        0.000   0.000   0.000   0.000
   52       -0.000  -0.000   0.000  -0.000
   53       -0.000  -0.000   0.000  -0.000
   54        0.000   0.000   0.000   0.000
   55       -0.000  -0.000   0.000  -0.000
   56       -0.000  -0.000   0.000  -0.000
   57       -0.000  -0.000   0.000  -0.000
   58        0.000   0.000   0.000   0.000
   59        0.000   0.000   0.000   0.000
   60       -0.000  -0.000   0.000  -0.000
   61        0.000   0.000   0.000   0.000
   62        0.000   0.000   0.000   0.000
   63       -0.000  -0.000   0.000  -0.000
   64       -0.000  -0.000   0.000  -0.000
   65        0.001   0.011   0.000   0.013
   66        0.001   0.011   0.000   0.013
   67       -0.001  -0.011   0.000  -0.013
   68       -0.001  -0.011   0.000  -0.013
   69        0.001   0.011   0.000   0.013
   70       -0.001  -0.011   0.000  -0.013
   71        0.001   0.011   0.000   0.013
   72       -0.001  -0.011   0.000  -0.013
   73        0.000   0.000   0.000   0.000
   74        0.000   0.000   0.000   0.000
   75       -0.000  -0.000   0.000  -0.000
   76       -0.000  -0.000   0.000  -0.000
   77        0.000   0.000   0.000   0.000
   78       -0.000  -0.000   0.000  -0.000
   79        0.000   0.000   0.000   0.000
   80       -0.000  -0.000   0.000  -0.000
   81        0.019   0.089   3.393   3.501
   82        0.019   0.089   3.393   3.500
   83       -0.019  -0.089  -3.393  -3.501
   84       -0.019  -0.089  -3.393  -3.501
   85        0.000  -0.000   0.000   0.000
   86        0.000  -0.000   0.000   0.000
   87        0.000  -0.000   0.000   0.000
   88       -0.000   0.000   0.000  -0.000
   89       -0.000   0.000   0.000  -0.000
   90        0.000  -0.000   0.000   0.000
   91       -0.000   0.000   0.000  -0.000
   92       -0.000   0.000   0.000  -0.000
   93       -0.000   0.000   0.000  -0.000
   94        0.000  -0.000   0.000   0.000
   95        0.000  -0.000   0.000   0.000
   96       -0.000   0.000   0.000  -0.000
   97        0.000  -0.000   0.000   0.000
   98        0.000  -0.000   0.000   0.000
   99       -0.000   0.000   0.000  -0.000
  100       -0.000   0.000   0.000  -0.000
  101       -0.000  -0.000   0.000  -0.001
  102       -0.000  -0.000   0.000  -0.001
  103       -0.000  -0.000   0.000  -0.001
  104        0.000   0.000   0.000   0.001
  105        0.000   0.000   0.000   0.001
  106       -0.000  -0.000   0.000  -0.001
  107        0.000   0.000   0.000   0.001
  108        0.000   0.000   0.000   0.001
  109        0.000   0.000   0.000   0.001
  110       -0.000  -0.000   0.000  -0.001
  111       -0.000  -0.000   0.000  -0.001
  112        0.000   0.000   0.000   0.001
  113       -0.000  -0.000   0.000  -0.001
  114       -0.000  -0.000   0.000  -0.001
  115        0.000   0.000   0.000   0.001
  116        0.000   0.000   0.000   0.001
  117        0.010   0.036   0.000   0.046
  118        0.011   0.037   0.000   0.048
  119        0.010   0.036   0.000   0.046
  120       -0.010  -0.036   0.000  -0.046
  121       -0.011  -0.037   0.000  -0.048
  122        0.011   0.037   0.000   0.048
  123       -0.011  -0.037   0.000  -0.048
  124       -0.010  -0.036   0.000  -0.046
  125       -0.011  -0.037   0.000  -0.048
  126        0.010   0.036   0.000   0.046
  127        0.011   0.037   0.000   0.048
  128       -0.011  -0.037   0.000  -0.048
  129        0.011   0.037   0.000   0.048
  130        0.010   0.036   0.000   0.046
  131       -0.010  -0.036   0.000  -0.046
  132       -0.010  -0.036   0.000  -0.046
  133        0.000   0.001   0.000   0.001
  134        0.000   0.001   0.000   0.001
  135       -0.000  -0.001   0.000  -0.001
  136       -0.000  -0.001   0.000  -0.001
  137        0.000   0.001   0.000   0.001
  138       -0.000  -0.001   0.000  -0.001
  139        0.000   0.001   0.000   0.001
  140       -0.000  -0.001   0.000  -0.001
  141        0.000   0.002   0.000   0.002
  142        0.000   0.002   0.000   0.002
  143        0.000   0.002   0.000   0.002
  144       -0.000  -0.002   0.000  -0.002
  145       -0.000  -0.002   0.000  -0.002
  146        0.000   0.002   0.000   0.002
  147       -0.000  -0.002   0.000  -0.002
  148       -0.000  -0.002   0.000  -0.002
  149       -0.000  -0.002   0.000  -0.002
  150        0.000   0.002   0.000   0.002
  151        0.000   0.002   0.000   0.002
  152       -0.000  -0.002   0.000  -0.002
  153        0.000   0.002   0.000   0.002
  154        0.000   0.002   0.000   0.002
  155       -0.000  -0.002   0.000  -0.002
  156       -0.000  -0.002   0.000  -0.002
--------------------------------------------------
tot         -0.000  -0.001  -0.001  -0.002
 

 total amount of memory used by VASP MPI-rank0   102815. kBytes
=======================================================================

   base      :      30000. kBytes
   nonlr-proj:       6131. kBytes
   fftplans  :       9928. kBytes
   grid      :      27355. kBytes
   one-center:       1213. kBytes
   wavefun   :      28188. kBytes
 
  
  
 General timing and accounting informations for this job:
 ========================================================
  
                  Total CPU time used (sec):     1508.760
                            User time (sec):     1396.471
                          System time (sec):      112.289
                         Elapsed time (sec):     1539.734
  
                   Maximum memory used (kb):      964156.
                   Average memory used (kb):           0.
  
                          Minor page faults:       227405
                          Major page faults:            6
                 Voluntary context switches:        45411
