       N       E                     dE             d eps       ncg     rms          rms(c)
DAV:   1     0.491384551661E+04    0.49138E+04   -0.29524E+05  9216   0.152E+03
DAV:   2    -0.586796719508E+03   -0.55006E+04   -0.52959E+04 11936   0.337E+02
DAV:   3    -0.126923819622E+04   -0.68244E+03   -0.67341E+03 11136   0.128E+02
DAV:   4    -0.129693612740E+04   -0.27698E+02   -0.27432E+02 13504   0.348E+01
DAV:   5    -0.129754414468E+04   -0.60802E+00   -0.60569E+00 12128   0.408E+00
DAV:   6    -0.129757811107E+04   -0.33966E-01   -0.33944E-01 14080   0.114E+00
DAV:   7    -0.129757872221E+04   -0.61114E-03   -0.61083E-03 12224   0.113E-01
DAV:   8    -0.129757874284E+04   -0.20632E-04   -0.20630E-04 14016   0.244E-02    0.922E+01
DAV:   9    -0.164305201858E+04   -0.34547E+03   -0.37054E+03 15360   0.869E+01    0.356E+02
DAV:  10    -0.156119514583E+04    0.81857E+02   -0.29401E+02 11360   0.322E+01    0.230E+02
DAV:  11    -0.119933765246E+04    0.36186E+03   -0.39743E+02 13376   0.846E+01    0.964E+01
DAV:  12    -0.117691370003E+04    0.22424E+02   -0.50190E+02 13664   0.838E+01    0.503E+01
DAV:  13    -0.117459112157E+04    0.23226E+01   -0.15707E+02 12128   0.172E+01    0.297E+01
DAV:  14    -0.121159675318E+04   -0.37006E+02   -0.36860E+02 13824   0.330E+01    0.758E+01
DAV:  15    -0.117385866606E+04    0.37738E+02   -0.19261E+02 13280   0.368E+01    0.305E+01
DAV:  16    -0.117771947403E+04   -0.38608E+01   -0.97469E+01 13568   0.214E+01    0.463E+01
DAV:  17    -0.116889618192E+04    0.88233E+01   -0.92611E+01 13696   0.162E+01    0.206E+01
DAV:  18    -0.116836251366E+04    0.53367E+00   -0.69545E+00 13504   0.615E+00    0.189E+01
DAV:  19    -0.116888330233E+04   -0.52079E+00   -0.10822E+01 13824   0.595E+00    0.192E+01
DAV:  20    -0.116981120589E+04   -0.92790E+00   -0.33616E+00 12608   0.392E+00    0.161E+01
DAV:  21    -0.117044092399E+04   -0.62972E+00   -0.10999E+00 11872   0.223E+00    0.131E+01
DAV:  22    -0.117149038586E+04   -0.10495E+01   -0.43067E-01 12096   0.151E+00    0.134E+01
DAV:  23    -0.117189774678E+04   -0.40736E+00   -0.84476E-01 12160   0.195E+00    0.128E+01
DAV:  24    -0.117229270562E+04   -0.39496E+00   -0.73834E-01 12480   0.127E+00    0.115E+01
DAV:  25    -0.117278548546E+04   -0.49278E+00   -0.97181E-01 11840   0.144E+00    0.111E+01
DAV:  26    -0.117279250801E+04   -0.70225E-02   -0.54680E-01 12992   0.159E+00    0.937E+00
DAV:  27    -0.117312439819E+04   -0.33189E+00   -0.48359E-01 12576   0.123E+00    0.888E+00
DAV:  28    -0.117348997654E+04   -0.36558E+00   -0.37246E-01 12544   0.112E+00    0.942E+00
DAV:  29    -0.117351820010E+04   -0.28224E-01   -0.21527E-01 11872   0.977E-01    0.901E+00
DAV:  30    -0.117352468875E+04   -0.64887E-02   -0.16326E-02 12256   0.300E-01    0.906E+00
DAV:  31    -0.117355259439E+04   -0.27906E-01   -0.17033E-02 12672   0.407E-01    0.892E+00
DAV:  32    -0.117363504037E+04   -0.82446E-01   -0.12599E-01 12576   0.845E-01    0.844E+00
DAV:  33    -0.117377229077E+04   -0.13725E+00   -0.26638E-01 12480   0.123E+00    0.737E+00
DAV:  34    -0.117363240731E+04    0.13988E+00   -0.93249E-02 12384   0.121E+00    0.601E+00
DAV:  35    -0.117335491961E+04    0.27749E+00   -0.13956E-01 12704   0.172E+00    0.447E+00
DAV:  36    -0.117338973313E+04   -0.34814E-01   -0.69872E-02 11904   0.715E-01    0.399E+00
DAV:  37    -0.117348465430E+04   -0.94921E-01   -0.18388E-01 11776   0.696E-01    0.362E+00
DAV:  38    -0.117352051410E+04   -0.35860E-01   -0.34297E-02 12256   0.617E-01    0.298E+00
DAV:  39    -0.117352248598E+04   -0.19719E-02   -0.23216E-02 13056   0.487E-01    0.235E+00
DAV:  40    -0.117352295432E+04   -0.46834E-03   -0.15109E-02 13440   0.414E-01    0.192E+00
DAV:  41    -0.117358881758E+04   -0.65863E-01   -0.11883E-02 12928   0.236E-01    0.172E+00
DAV:  42    -0.117365210196E+04   -0.63284E-01   -0.75429E-03 11776   0.270E-01    0.132E+00
DAV:  43    -0.117373476845E+04   -0.82666E-01   -0.92988E-03 12032   0.259E-01    0.886E-01
DAV:  44    -0.117377940586E+04   -0.44637E-01   -0.32488E-03 12416   0.122E-01    0.644E-01
DAV:  45    -0.117383333091E+04   -0.53925E-01   -0.22910E-03 11712   0.950E-02    0.419E-01
DAV:  46    -0.117388320185E+04   -0.49871E-01   -0.34320E-03 11328   0.116E-01    0.202E-01
DAV:  47    -0.117389321631E+04   -0.10014E-01   -0.73100E-04 12384   0.632E-02    0.122E-01
DAV:  48    -0.117389692256E+04   -0.37062E-02   -0.26984E-04 12608   0.488E-02    0.938E-02
DAV:  49    -0.117389805359E+04   -0.11310E-02   -0.32576E-04 12544   0.350E-02    0.706E-02
DAV:  50    -0.117389821327E+04   -0.15968E-03   -0.12838E-04 13152   0.248E-02    0.543E-02
DAV:  51    -0.117389861714E+04   -0.40387E-03   -0.57424E-05 12224   0.141E-02    0.495E-02
DAV:  52    -0.117389891006E+04   -0.29292E-03   -0.59739E-05 12320   0.159E-02    0.384E-02
DAV:  53    -0.117389911113E+04   -0.20107E-03   -0.20182E-05 11840   0.861E-03    0.322E-02
DAV:  54    -0.117389935960E+04   -0.24846E-03   -0.29226E-05 10144   0.982E-03    0.170E-02
DAV:  55    -0.117389961822E+04   -0.25862E-03   -0.11794E-05 10016   0.681E-03    0.176E-02
DAV:  56    -0.117389980639E+04   -0.18817E-03   -0.67149E-06  8768   0.421E-03    0.146E-02
DAV:  57    -0.117389999497E+04   -0.18858E-03   -0.10124E-05  9632   0.549E-03    0.989E-03
DAV:  58    -0.117390007867E+04   -0.83700E-04   -0.43711E-06  8768   0.410E-03    0.704E-03
DAV:  59    -0.117390011516E+04   -0.36487E-04   -0.18311E-06  7712   0.430E-03    0.430E-03
DAV:  60    -0.117390014199E+04   -0.26832E-04   -0.26730E-06  8320   0.395E-03    0.276E-03
DAV:  61    -0.117390016300E+04   -0.21007E-04   -0.10212E-06  7424   0.240E-03    0.225E-03
DAV:  62    -0.117390017929E+04   -0.16294E-04   -0.64114E-07  7136   0.149E-03    0.203E-03
DAV:  63    -0.117390019180E+04   -0.12506E-04   -0.49745E-07  7104   0.126E-03    0.200E-03
DAV:  64    -0.117390019474E+04   -0.29439E-05   -0.28820E-07  6560   0.147E-03    0.100E-03
DAV:  65    -0.117390020079E+04   -0.60502E-05   -0.23494E-07  6496   0.640E-04    0.858E-04
DAV:  66    -0.117390020565E+04   -0.48566E-05   -0.15509E-07  6496   0.585E-04    0.634E-04
DAV:  67    -0.117390020991E+04   -0.42595E-05   -0.23718E-07  6720   0.651E-04    0.515E-04
DAV:  68    -0.117390021117E+04   -0.12646E-05   -0.93140E-08  6528   0.510E-04    0.402E-04
DAV:  69    -0.117390021144E+04   -0.26177E-06   -0.42430E-08  6432   0.364E-04
   1 F= -.11865298E+04 E0= -.11865179E+04  d E =-.118653E+04  mag=     0.0001
