 vasp.5.4.4.18Apr17-6-g9f103f2a35 (build May 22 2020 17:00:04) complex          
  
 executed on           IFC15_impi date 2020.09.23  01:01:51
 running on  128 total cores
 distrk:  each k-point on  128 cores,    1 groups
 distr:  one band on NCORES_PER_BAND=   4 cores,   32 groups


--------------------------------------------------------------------------------------------------------


 INCAR:
 POTCAR:    PAW_PBE C 08Apr2002                   
 POTCAR:    PAW_PBE Fe 06Sep2000                  
 POTCAR:    PAW_PBE H 15Jun2001                   
 POTCAR:    PAW_PBE N 08Apr2002                   
 POTCAR:    PAW_PBE O 08Apr2002                   

 ----------------------------------------------------------------------------- 
|                                                                             |
|           W    W    AA    RRRRR   N    N  II  N    N   GGGG   !!!           |
|           W    W   A  A   R    R  NN   N  II  NN   N  G    G  !!!           |
|           W    W  A    A  R    R  N N  N  II  N N  N  G       !!!           |
|           W WW W  AAAAAA  RRRRR   N  N N  II  N  N N  G  GGG   !            |
|           WW  WW  A    A  R   R   N   NN  II  N   NN  G    G                |
|           W    W  A    A  R    R  N    N  II  N    N   GGGG   !!!           |
|                                                                             |
|      For optimal performance we recommend to set                            |
|        NCORE= 4 - approx SQRT( number of cores)                             |
|      NCORE specifies how many cores store one orbital (NPAR=cpu/NCORE).     |
|      This setting can  greatly improve the performance of VASP for DFT.     |
|      The default,   NCORE=1            might be grossly inefficient         |
|      on modern multi-core architectures or massively parallel machines.     |
|      Do your own testing !!!!                                               |
|      Unfortunately you need to use the default for GW and RPA calculations. |
|      (for HF NCORE is supported but not extensively tested yet)             |
|                                                                             |
 ----------------------------------------------------------------------------- 

 POTCAR:    PAW_PBE C 08Apr2002                   
   VRHFIN =C: s2p2                                                              
   LEXCH  = PE                                                                  
   EATOM  =   147.1560 eV,   10.8157 Ry                                         
                                                                                
   TITEL  = PAW_PBE C 08Apr2002                                                 
   LULTRA =        F    use ultrasoft PP ?                                      
   IUNSCR =        1    unscreen: 0-lin 1-nonlin 2-no                           
   RPACOR =    1.200    partial core radius                                     
   POMASS =   12.011; ZVAL   =    4.000    mass and valenz                      
   RCORE  =    1.500    outmost cutoff radius                                   
   RWIGS  =    1.630; RWIGS  =    0.863    wigner-seitz radius (au A)           
   ENMAX  =  400.000; ENMIN  =  300.000 eV                                      
   ICORE  =        2    local potential                                         
   LCOR   =        T    correct aug charges                                     
   LPAW   =        T    paw PP                                                  
   EAUG   =  644.873                                                            
   DEXC   =    0.000                                                            
   RMAX   =    1.529    core radius for proj-oper                               
   RAUG   =    1.300    factor for augmentation sphere                          
   RDEP   =    1.501    radius for radial grids                                 
   RDEPT  =    1.300    core radius for aug-charge                              
                                                                                
   Atomic configuration                                                         
    4 entries                                                                   
     n  l   j            E        occ.                                          
     1  0  0.50      -273.3789   2.0000                                         
     2  0  0.50       -13.7508   2.0000                                         
     2  1  0.50        -5.2854   2.0000                                         
     3  2  1.50        -5.4423   0.0000                                         
   Description                                                                  
     l       E           TYP  RCUT    TYP  RCUT                                 
     0    -13.7508458     23  1.200                                             
     0     -8.2022199     23  1.200                                             
     1     -5.2854383     23  1.500                                             
     1     34.0145650     23  1.500                                             
     2     -5.4423304      7  1.500                                             
  local pseudopotential read in
  partial core-charges read in
  partial kinetic energy density read in
  atomic valenz-charges read in
  non local Contribution for L=           0  read in
    real space projection operators read in
  non local Contribution for L=           0  read in
    real space projection operators read in
  non local Contribution for L=           1  read in
    real space projection operators read in
  non local Contribution for L=           1  read in
    real space projection operators read in
    PAW grid and wavefunctions read in
 
   number of l-projection  operators is LMAX  =           4
   number of lm-projection operators is LMMAX =           8
 
 POTCAR:    PAW_PBE Fe 06Sep2000                  
   VRHFIN =Fe:  d7 s1                                                           
   LEXCH  = PE                                                                  
   EATOM  =   594.3153 eV,   43.6809 Ry                                         
                                                                                
   TITEL  = PAW_PBE Fe 06Sep2000                                                
   LULTRA =        F    use ultrasoft PP ?                                      
   IUNSCR =        1    unscreen: 0-lin 1-nonlin 2-no                           
   RPACOR =    2.000    partial core radius                                     
   POMASS =   55.847; ZVAL   =    8.000    mass and valenz                      
   RCORE  =    2.300    outmost cutoff radius                                   
   RWIGS  =    2.460; RWIGS  =    1.302    wigner-seitz radius (au A)           
   ENMAX  =  267.882; ENMIN  =  200.911 eV                                      
   RCLOC  =    1.701    cutoff for local pot                                    
   LCOR   =        T    correct aug charges                                     
   LPAW   =        T    paw PP                                                  
   EAUG   =  511.368                                                            
   DEXC   =    0.000                                                            
   RMAX   =    2.356    core radius for proj-oper                               
   RAUG   =    1.300    factor for augmentation sphere                          
   RDEP   =    2.442    radius for radial grids                                 
   RDEPT  =    1.890    core radius for aug-charge                              
                                                                                
   Atomic configuration                                                         
    9 entries                                                                   
     n  l   j            E        occ.                                          
     1  0  0.50     -6993.8440   2.0000                                         
     2  0  0.50      -814.6047   2.0000                                         
     2  1  1.50      -693.3689   6.0000                                         
     3  0  0.50       -89.4732   2.0000                                         
     3  1  1.50       -55.6373   6.0000                                         
     3  2  2.50        -3.8151   7.0000                                         
     4  0  0.50        -4.2551   1.0000                                         
     4  1  1.50        -3.4015   0.0000                                         
     4  3  2.50        -1.3606   0.0000                                         
   Description                                                                  
     l       E           TYP  RCUT    TYP  RCUT                                 
     2     -3.8151135     23  2.300                                             
     2     -5.1756961     23  2.300                                             
     0     -4.2550963     23  2.300                                             
     0      7.2035603     23  2.300                                             
     1     -2.7211652     23  2.300                                             
     1     18.4316424     23  2.300                                             
  local pseudopotential read in
  partial core-charges read in
  partial kinetic energy density read in
  atomic valenz-charges read in
  non local Contribution for L=           2  read in
    real space projection operators read in
  non local Contribution for L=           2  read in
    real space projection operators read in
  non local Contribution for L=           0  read in
    real space projection operators read in
  non local Contribution for L=           0  read in
    real space projection operators read in
  non local Contribution for L=           1  read in
    real space projection operators read in
  non local Contribution for L=           1  read in
    real space projection operators read in
    PAW grid and wavefunctions read in
 
   number of l-projection  operators is LMAX  =           6
   number of lm-projection operators is LMMAX =          18
 
 POTCAR:    PAW_PBE H 15Jun2001                   
   VRHFIN =H: ultrasoft test                                                    
   LEXCH  = PE                                                                  
   EATOM  =    12.4884 eV,    0.9179 Ry                                         
                                                                                
   TITEL  = PAW_PBE H 15Jun2001                                                 
   LULTRA =        F    use ultrasoft PP ?                                      
   IUNSCR =        0    unscreen: 0-lin 1-nonlin 2-no                           
   RPACOR =    0.000    partial core radius                                     
   POMASS =    1.000; ZVAL   =    1.000    mass and valenz                      
   RCORE  =    1.100    outmost cutoff radius                                   
   RWIGS  =    0.700; RWIGS  =    0.370    wigner-seitz radius (au A)           
   ENMAX  =  250.000; ENMIN  =  200.000 eV                                      
   RCLOC  =    0.701    cutoff for local pot                                    
   LCOR   =        T    correct aug charges                                     
   LPAW   =        T    paw PP                                                  
   EAUG   =  400.000                                                            
   RMAX   =    1.123    core radius for proj-oper                               
   RAUG   =    1.200    factor for augmentation sphere                          
   RDEP   =    1.112    radius for radial grids                                 
   RDEPT  =    0.926    core radius for aug-charge                              
                                                                                
   Atomic configuration                                                         
    2 entries                                                                   
     n  l   j            E        occ.                                          
     1  0  0.50        -6.4927   1.0000                                         
     2  1  0.50        -3.4015   0.0000                                         
   Description                                                                  
     l       E           TYP  RCUT    TYP  RCUT                                 
     0     -6.4927494     23  1.100                                             
     0      6.8029130     23  1.100                                             
     1     -4.0817478     23  1.100                                             
  local pseudopotential read in
  atomic valenz-charges read in
  non local Contribution for L=           0  read in
    real space projection operators read in
  non local Contribution for L=           0  read in
    real space projection operators read in
  non local Contribution for L=           1  read in
    real space projection operators read in
    PAW grid and wavefunctions read in
 
   number of l-projection  operators is LMAX  =           3
   number of lm-projection operators is LMMAX =           5
 
 POTCAR:    PAW_PBE N 08Apr2002                   
   VRHFIN =N: s2p3                                                              
   LEXCH  = PE                                                                  
   EATOM  =   264.5486 eV,   19.4438 Ry                                         
                                                                                
   TITEL  = PAW_PBE N 08Apr2002                                                 
   LULTRA =        F    use ultrasoft PP ?                                      
   IUNSCR =        1    unscreen: 0-lin 1-nonlin 2-no                           
   RPACOR =    1.200    partial core radius                                     
   POMASS =   14.001; ZVAL   =    5.000    mass and valenz                      
   RCORE  =    1.500    outmost cutoff radius                                   
   RWIGS  =    1.400; RWIGS  =    0.741    wigner-seitz radius (au A)           
   ENMAX  =  400.000; ENMIN  =  300.000 eV                                      
   ICORE  =        2    local potential                                         
   LCOR   =        T    correct aug charges                                     
   LPAW   =        T    paw PP                                                  
   EAUG   =  627.112                                                            
   DEXC   =    0.000                                                            
   RMAX   =    1.529    core radius for proj-oper                               
   RAUG   =    1.300    factor for augmentation sphere                          
   RDEP   =    1.514    radius for radial grids                                 
   RDEPT  =    1.338    core radius for aug-charge                              
                                                                                
   Atomic configuration                                                         
    4 entries                                                                   
     n  l   j            E        occ.                                          
     1  0  0.50      -384.7179   2.0000                                         
     2  0  0.50       -18.5828   2.0000                                         
     2  1  0.50        -7.0898   3.0000                                         
     3  2  1.50        -6.8029   0.0000                                         
   Description                                                                  
     l       E           TYP  RCUT    TYP  RCUT                                 
     0    -18.5828119     23  1.200                                             
     0    -13.5018863     23  1.200                                             
     1     -7.0897853     23  1.500                                             
     1      9.5240782     23  1.500                                             
     2     -6.8029130      7  1.500                                             
  local pseudopotential read in
  partial core-charges read in
  partial kinetic energy density read in
  atomic valenz-charges read in
  non local Contribution for L=           0  read in
    real space projection operators read in
  non local Contribution for L=           0  read in
    real space projection operators read in
  non local Contribution for L=           1  read in
    real space projection operators read in
  non local Contribution for L=           1  read in
    real space projection operators read in
    PAW grid and wavefunctions read in
 
   number of l-projection  operators is LMAX  =           4
   number of lm-projection operators is LMMAX =           8
 
 POTCAR:    PAW_PBE O 08Apr2002                   
   VRHFIN =O: s2p4                                                              
   LEXCH  = PE                                                                  
   EATOM  =   432.3788 eV,   31.7789 Ry                                         
                                                                                
   TITEL  = PAW_PBE O 08Apr2002                                                 
   LULTRA =        F    use ultrasoft PP ?                                      
   IUNSCR =        1    unscreen: 0-lin 1-nonlin 2-no                           
   RPACOR =    1.200    partial core radius                                     
   POMASS =   16.000; ZVAL   =    6.000    mass and valenz                      
   RCORE  =    1.520    outmost cutoff radius                                   
   RWIGS  =    1.550; RWIGS  =    0.820    wigner-seitz radius (au A)           
   ENMAX  =  400.000; ENMIN  =  300.000 eV                                      
   ICORE  =        2    local potential                                         
   LCOR   =        T    correct aug charges                                     
   LPAW   =        T    paw PP                                                  
   EAUG   =  605.392                                                            
   DEXC   =    0.000                                                            
   RMAX   =    1.553    core radius for proj-oper                               
   RAUG   =    1.300    factor for augmentation sphere                          
   RDEP   =    1.550    radius for radial grids                                 
   RDEPT  =    1.329    core radius for aug-charge                              
                                                                                
   Atomic configuration                                                         
    4 entries                                                                   
     n  l   j            E        occ.                                          
     1  0  0.50      -514.6923   2.0000                                         
     2  0  0.50       -23.9615   2.0000                                         
     2  1  0.50        -9.0305   4.0000                                         
     3  2  1.50        -9.5241   0.0000                                         
   Description                                                                  
     l       E           TYP  RCUT    TYP  RCUT                                 
     0    -23.9615318     23  1.200                                             
     0     -9.5240782     23  1.200                                             
     1     -9.0304911     23  1.520                                             
     1      8.1634956     23  1.520                                             
     2     -9.5240782      7  1.500                                             
  local pseudopotential read in
  partial core-charges read in
  partial kinetic energy density read in
  kinetic energy density of atom read in
  atomic valenz-charges read in
  non local Contribution for L=           0  read in
    real space projection operators read in
  non local Contribution for L=           0  read in
    real space projection operators read in
  non local Contribution for L=           1  read in
    real space projection operators read in
  non local Contribution for L=           1  read in
    real space projection operators read in
    PAW grid and wavefunctions read in
 
   number of l-projection  operators is LMAX  =           4
   number of lm-projection operators is LMMAX =           8
 
 Optimization of the real space projectors (new method)

 maximal supplied QI-value         = 25.13
 optimisation between [QCUT,QGAM] = [ 12.32, 24.88] = [ 42.47,173.37] Ry 
 Optimized for a Real-space Cutoff    1.06 Angstroem

   l    n(q)    QCUT    max X(q) W(low)/X(q) W(high)/X(q)  e(spline) 
   0      8    12.315   115.676    0.34E-03    0.18E-03    0.23E-06
   0      8    12.315    87.132    0.34E-03    0.18E-03    0.22E-06
   1      7    12.315     4.429    0.45E-03    0.12E-03    0.18E-06
   1      7    12.315     2.733    0.35E-03    0.97E-04    0.15E-06
 Optimization of the real space projectors (new method)

 maximal supplied QI-value         = 16.25
 optimisation between [QCUT,QGAM] = [ 12.51, 25.03] = [ 43.85,175.40] Ry 
 Optimized for a Real-space Cutoff    1.35 Angstroem

   l    n(q)    QCUT    max X(q) W(low)/X(q) W(high)/X(q)  e(spline) 
   2      9    12.514    80.901    0.12E-03    0.34E-03    0.58E-06
   2      9    12.514    75.754    0.12E-03    0.34E-03    0.59E-06
   0     10    12.514    58.752    0.17E-03    0.81E-04    0.93E-07
   0     10    12.514    30.679    0.15E-03    0.74E-04    0.88E-07
   1     10    12.514    17.977    0.11E-03    0.79E-04    0.24E-06
   1     10    12.514    13.559    0.97E-04    0.61E-04    0.20E-06
 Optimization of the real space projectors (new method)

 maximal supplied QI-value         = 34.20
 optimisation between [QCUT,QGAM] = [ 12.31, 24.97] = [ 42.46,174.58] Ry 
 Optimized for a Real-space Cutoff    1.00 Angstroem

   l    n(q)    QCUT    max X(q) W(low)/X(q) W(high)/X(q)  e(spline) 
   0      7    12.313    19.460    0.14E-03    0.42E-03    0.16E-06
   0      7    12.313    12.209    0.12E-03    0.40E-03    0.16E-06
   1      7    12.313     4.655    0.33E-03    0.59E-03    0.89E-07
 Optimization of the real space projectors (new method)

 maximal supplied QI-value         = 25.13
 optimisation between [QCUT,QGAM] = [ 12.32, 24.88] = [ 42.47,173.37] Ry 
 Optimized for a Real-space Cutoff    1.20 Angstroem

   l    n(q)    QCUT    max X(q) W(low)/X(q) W(high)/X(q)  e(spline) 
   0      9    12.315    79.467    0.14E-03    0.22E-04    0.37E-06
   0      9    12.315    66.151    0.14E-03    0.23E-04    0.36E-06
   1      8    12.315    22.077    0.30E-03    0.54E-03    0.45E-06
   1      8    12.315    15.894    0.30E-03    0.55E-03    0.45E-06
 Optimization of the real space projectors (new method)

 maximal supplied QI-value         = 24.76
 optimisation between [QCUT,QGAM] = [ 12.38, 25.00] = [ 42.90,175.06] Ry 
 Optimized for a Real-space Cutoff    1.13 Angstroem

   l    n(q)    QCUT    max X(q) W(low)/X(q) W(high)/X(q)  e(spline) 
   0      8    12.378    20.381    0.16E-03    0.54E-05    0.27E-06
   0      8    12.378    15.268    0.17E-03    0.61E-05    0.29E-06
   1      8    12.378     5.964    0.38E-03    0.23E-03    0.28E-06
   1      8    12.378     5.382    0.33E-03    0.20E-03    0.25E-06
  PAW_PBE C 08Apr2002                   :
 energy of atom  1       EATOM= -147.1560
 kinetic energy error for atom=    0.0057 (will be added to EATOM!!)
  PAW_PBE Fe 06Sep2000                  :
 energy of atom  2       EATOM= -594.3153
 kinetic energy error for atom=    0.0017 (will be added to EATOM!!)
  PAW_PBE H 15Jun2001                   :
 energy of atom  3       EATOM=  -12.4884
 kinetic energy error for atom=    0.0004 (will be added to EATOM!!)
  PAW_PBE N 08Apr2002                   :
 energy of atom  4       EATOM= -264.5486
 kinetic energy error for atom=    0.0103 (will be added to EATOM!!)
  PAW_PBE O 08Apr2002                   :
 energy of atom  5       EATOM= -432.3788
 kinetic energy error for atom=    0.0168 (will be added to EATOM!!)
 
 
 POSCAR: FeH_6                                   
  positions in direct lattice
  velocities in cartesian coordinates
 exchange correlation table for  LEXCH =        8
   RHO(1)=    0.500       N(1)  =     2000
   RHO(2)=  100.500       N(2)  =     4000
 


--------------------------------------------------------------------------------------------------------


 ion  position               nearest neighbor table
   1  0.841  0.956  0.106- 107 1.09 117 1.35  65 1.40
   2  0.921  0.965  0.450- 112 1.08 118 1.35  65 1.40
   3  0.836  0.808  0.899- 116 1.09 119 1.35  66 1.40
   4  0.659  0.456  0.605- 110 1.09 120 1.35  67 1.40
   5  0.585  0.298  0.054- 111 1.08 121 1.35  68 1.40
   6  0.080  0.797  0.057- 115 1.08 122 1.35  69 1.40
   7  0.579  0.465  0.948- 101 1.08 123 1.35  67 1.40
   8  0.664  0.308  0.397- 113 1.09 124 1.35  68 1.40
   9  0.414  0.464  0.448- 114 1.09 125 1.35  70 1.40
  10  0.160  0.806  0.401- 104 1.09 126 1.35  69 1.40
  11  0.086  0.964  0.951- 105 1.08 127 1.35  71 1.40
  12  0.420  0.297  0.554- 102 1.08 128 1.35  72 1.40
  13  0.915  0.798  0.556- 108 1.09 129 1.35  66 1.40
  14  0.165  0.954  0.608- 109 1.09 130 1.35  71 1.40
  15  0.340  0.306  0.897- 106 1.09 131 1.35  72 1.40
  16  0.335  0.454  0.105- 103 1.09 132 1.35  70 1.40
  17  0.763  0.037  0.449- 141 1.23 133 1.41  33 1.48
  18  0.866  0.056  0.078- 142 1.23 133 1.42  34 1.48
  19  0.858  0.709  0.930- 143 1.23 134 1.42  35 1.48
  20  0.634  0.556  0.577- 144 1.23 135 1.42  36 1.48
  21  0.642  0.208  0.428- 145 1.23 136 1.42  37 1.48
  22  0.237  0.725  0.057- 146 1.23 137 1.41  38 1.48
  23  0.737  0.537  0.949- 147 1.23 135 1.41  39 1.48
  24  0.745  0.227  0.057- 148 1.23 136 1.41  40 1.48
  25  0.254  0.535  0.446- 149 1.23 138 1.41  41 1.48
  26  0.134  0.707  0.428- 150 1.23 137 1.42  42 1.48
  27  0.143  0.053  0.576- 151 1.23 139 1.42  43 1.48
  28  0.366  0.207  0.926- 152 1.23 140 1.42  44 1.48
  29  0.755  0.727  0.558- 153 1.23 134 1.41  45 1.48
  30  0.246  0.035  0.948- 154 1.23 139 1.41  46 1.48
  31  0.263  0.225  0.554- 155 1.23 140 1.41  47 1.48
  32  0.357  0.554  0.075- 156 1.23 138 1.42  48 1.48
  33  0.732  0.081  0.437-  49 1.39  73 1.42  17 1.48
  34  0.836  0.100  0.080-  50 1.39  73 1.42  18 1.48
  35  0.827  0.665  0.929-  51 1.39  74 1.42  19 1.48
  36  0.664  0.600  0.580-  52 1.39  75 1.42  20 1.48
  37  0.673  0.165  0.427-  53 1.39  76 1.42  21 1.48
  38  0.268  0.681  0.068-  54 1.39  77 1.42  22 1.48
  39  0.768  0.581  0.938-  55 1.39  75 1.42  23 1.48
  40  0.777  0.183  0.070-  56 1.39  76 1.42  24 1.48
  41  0.222  0.579  0.434-  57 1.39  78 1.42  25 1.48
  42  0.164  0.663  0.426-  58 1.39  77 1.42  26 1.48
  43  0.173  0.097  0.577-  59 1.39  79 1.42  27 1.48
  44  0.336  0.163  0.924-  60 1.39  80 1.42  28 1.48
  45  0.723  0.683  0.570-  61 1.39  74 1.42  29 1.48
  46  0.278  0.079  0.935-  62 1.39  79 1.42  30 1.48
  47  0.232  0.181  0.566-  63 1.39  80 1.42  31 1.48
  48  0.327  0.597  0.077-  64 1.39  78 1.42  32 1.48
  49  0.666  0.093  0.607-  88 1.09  33 1.39  53 1.40
  50  0.873  0.130  0.906-  99 1.09  34 1.39  56 1.40
  51  0.864  0.634  0.103-  93 1.09  35 1.39  55 1.40
  52  0.627  0.630  0.406-  90 1.09  36 1.39  61 1.40
  53  0.636  0.134  0.601-  98 1.09  37 1.39  49 1.40
  54  0.334  0.669  0.899-  96 1.09  38 1.39  64 1.40
  55  0.834  0.593  0.108-  86 1.09  39 1.39  51 1.40
  56  0.843  0.171  0.901-  87 1.09  40 1.39  50 1.40
  57  0.156  0.591  0.603-  95 1.09  41 1.39  58 1.40
  58  0.127  0.632  0.599-  91 1.09  42 1.39  57 1.40
  59  0.136  0.127  0.402-  92 1.09  43 1.39  63 1.40
  60  0.373  0.133  0.099-  85 1.09  44 1.39  62 1.40
  61  0.656  0.672  0.401-  89 1.09  45 1.39  52 1.40
  62  0.344  0.091  0.104- 100 1.09  46 1.39  60 1.40
  63  0.166  0.169  0.397-  94 1.09  47 1.39  59 1.40
  64  0.364  0.628  0.903-  97 1.09  48 1.39  54 1.40
  65  0.859  0.985  0.273-   2 1.40   1 1.40 133 1.42
  66  0.853  0.779  0.733-  13 1.40   3 1.40 134 1.42
  67  0.641  0.485  0.772-   7 1.40   4 1.40 135 1.42
  68  0.647  0.279  0.231-   5 1.40   8 1.40 136 1.42
  69  0.141  0.777  0.234-   6 1.40  10 1.40 137 1.42
  70  0.352  0.483  0.272-   9 1.40  16 1.40 138 1.42
  71  0.148  0.983  0.775-  11 1.40  14 1.40 139 1.42
  72  0.359  0.277  0.730-  12 1.40  15 1.40 140 1.42
  73  0.769  0.111  0.256-  33 1.42  34 1.42  76 1.43
  74  0.760  0.653  0.752-  45 1.42  35 1.42  75 1.43
  75  0.730  0.611  0.756-  39 1.42  36 1.42  74 1.43
  76  0.739  0.153  0.251-  40 1.42  37 1.42  73 1.43
  77  0.231  0.651  0.249-  38 1.42  42 1.42  78 1.43
  78  0.260  0.609  0.253-  41 1.42  48 1.42  77 1.43
  79  0.240  0.109  0.753-  46 1.42  43 1.42  80 1.43
  80  0.270  0.151  0.748-  47 1.42  44 1.42  79 1.43
  81  0.969  0.881  0.003- 117 2.01 119 2.01 122 2.02 127 2.03  82 2.88  82 2.88
  82  0.032  0.881  0.504- 126 2.01 130 2.01 129 2.03 118 2.03  81 2.88  81 2.88
  83  0.532  0.381  0.501- 124 2.01 120 2.01 125 2.02 128 2.02  84 2.88  84 2.88
  84  0.468  0.381  0.001- 131 2.01 132 2.01 123 2.02 121 2.03  83 2.88  83 2.88
  85  0.425  0.142  0.232-  60 1.09
  86  0.862  0.569  0.244-  55 1.09
  87  0.871  0.195  0.764-  56 1.09
  88  0.638  0.069  0.743-  49 1.09
  89  0.628  0.695  0.264-  61 1.09
  90  0.575  0.620  0.273-  52 1.09
  91  0.076  0.642  0.732-  58 1.09
  92  0.085  0.118  0.269-  59 1.09
  93  0.915  0.644  0.236-  51 1.09
  94  0.138  0.193  0.260-  63 1.09
  95  0.128  0.567  0.739-  57 1.09
  96  0.363  0.693  0.763-  54 1.09
  97  0.415  0.618  0.770-  64 1.09
  98  0.585  0.144  0.734-  53 1.09
  99  0.924  0.120  0.773-  50 1.09
 100  0.372  0.067  0.241-  62 1.09
 101  0.547  0.478  0.106-   7 1.08
 102  0.452  0.285  0.396-  12 1.08
 103  0.292  0.457  0.938-  16 1.09
 104  0.203  0.803  0.568-  10 1.09
 105  0.054  0.977  0.108-  11 1.08
 106  0.297  0.303  0.063-  15 1.09
 107  0.798  0.959  0.939-   1 1.09
 108  0.947  0.785  0.399-  13 1.09
 109  0.208  0.956  0.442-  14 1.09
 110  0.702  0.459  0.438-   4 1.09
 111  0.553  0.285  0.896-   5 1.08
 112  0.953  0.978  0.608-   2 1.08
 113  0.707  0.306  0.564-   8 1.09
 114  0.446  0.477  0.606-   9 1.09
 115  0.048  0.785  0.899-   6 1.08
 116  0.793  0.806  0.065-   3 1.09
 117  0.889  0.921  0.180-   1 1.35 118 1.37  81 2.01
 118  0.938  0.927  0.391-   2 1.35 117 1.37  82 2.03
 119  0.886  0.843  0.825-   3 1.35 129 1.37  81 2.01
 120  0.611  0.421  0.678-   4 1.35 123 1.37  83 2.01
 121  0.565  0.337  0.112-   5 1.35 124 1.37  84 2.03
 122  0.063  0.836  0.116-   6 1.35 126 1.37  81 2.02
 123  0.562  0.427  0.889-   7 1.35 120 1.37  84 2.02
 124  0.614  0.343  0.323-   8 1.35 121 1.37  83 2.01
 125  0.434  0.426  0.389-   9 1.35 132 1.37  83 2.02
 126  0.112  0.842  0.327-  10 1.35 122 1.37  82 2.01
 127  0.066  0.926  0.892-  11 1.35 130 1.37  81 2.03
 128  0.437  0.336  0.612-  12 1.35 131 1.37  83 2.02
 129  0.935  0.837  0.615-  13 1.35 119 1.37  82 2.03
 130  0.115  0.919  0.682-  14 1.35 127 1.37  82 2.01
 131  0.388  0.342  0.823-  15 1.35 128 1.37  84 2.01
 132  0.385  0.419  0.179-  16 1.35 125 1.37  84 2.01
 133  0.827  0.027  0.263-  17 1.41  18 1.42  65 1.42
 134  0.819  0.737  0.744-  29 1.41  19 1.42  66 1.42
 135  0.673  0.527  0.763-  23 1.41  20 1.42  67 1.42
 136  0.681  0.237  0.242-  24 1.41  21 1.42  68 1.42
 137  0.174  0.735  0.243-  22 1.41  26 1.42  69 1.42
 138  0.318  0.525  0.261-  25 1.41  32 1.42  70 1.42
 139  0.182  0.025  0.763-  30 1.41  27 1.42  71 1.42
 140  0.327  0.235  0.740-  31 1.41  28 1.42  72 1.42
 141  0.736  0.010  0.609-  17 1.23
 142  0.922  0.044  0.926-  18 1.23
 143  0.914  0.720  0.083-  19 1.23
 144  0.578  0.544  0.424-  20 1.23
 145  0.586  0.220  0.581-  21 1.23
 146  0.265  0.752  0.898-  22 1.23
 147  0.764  0.510  0.109-  23 1.23
 148  0.772  0.254  0.897-  24 1.23
 149  0.227  0.508  0.606-  25 1.23
 150  0.078  0.718  0.581-  26 1.23
 151  0.087  0.042  0.424-  27 1.23
 152  0.422  0.218  0.078-  28 1.23
 153  0.728  0.754  0.398-  29 1.23
 154  0.273  0.008  0.110-  30 1.23
 155  0.235  0.252  0.394-  31 1.23
 156  0.413  0.542  0.923-  32 1.23
 

IMPORTANT INFORMATION: All symmetrisations will be switched off!
NOSYMM: (Re-)initialisation of all symmetry stuff for point group C_1.

 
 

Automatic generation of k-mesh.
 generate k-points for:    2    1    4
Space group operators:
 irot       det(A)        alpha          n_x          n_y          n_z        tau_x        tau_y        tau_z
    1     1.000000     0.000000     1.000000     0.000000     0.000000     0.000000     0.000000     0.000000
 
 Subroutine IBZKPT returns following result:
 ===========================================
 
 Found      6 irreducible k-points:
 
 Following reciprocal coordinates:
            Coordinates               Weight
  0.000000  0.000000  0.000000      1.000000
  0.500000 -0.000000 -0.000000      1.000000
 -0.000000  0.000000  0.250000      2.000000
  0.500000  0.000000  0.250000      2.000000
 -0.000000  0.000000  0.500000      1.000000
  0.500000  0.000000  0.500000      1.000000
 
 Following cartesian coordinates:
            Coordinates               Weight
  0.000000  0.000000  0.000000      1.000000
  0.035730  0.000002  0.000018      1.000000
  0.000046 -0.002005  0.045821      2.000000
  0.035776 -0.002004  0.045839      2.000000
  0.000092 -0.004011  0.091642      1.000000
  0.035822 -0.004009  0.091660      1.000000
 


--------------------------------------------------------------------------------------------------------




 Dimension of arrays:
   k-points           NKPTS =      6   k-points in BZ     NKDIM =      6   number of bands    NBANDS=    384
   number of dos      NEDOS =    301   number of ions     NIONS =    156
   non local maximal  LDIM  =      6   non local SUM 2l+1 LMDIM =     18
   total plane-waves  NPLWV = 592704
   max r-space proj   IRMAX =   2510   max aug-charges    IRDMAX=   8780
   dimension x,y,z NGX =    84 NGY =  196 NGZ =   36
   dimension x,y,z NGXF=   168 NGYF=  392 NGZF=   72
   support grid    NGXF=   168 NGYF=  392 NGZF=   72
   ions per type =              80   4  32  24  16
   NGX,Y,Z   is equivalent  to a cutoff of   9.98, 10.10, 10.93 a.u.
   NGXF,Y,Z  is equivalent  to a cutoff of  19.96, 20.20, 21.85 a.u.

 SYSTEM =  flex_MOF                                
 POSCAR =  FeH_6                                   

 Startparameter for this run:
   NWRITE =      2    write-flag & timer
   PREC   = normal    normal or accurate (medium, high low for compatibility)
   ISTART =      0    job   : 0-new  1-cont  2-samecut
   ICHARG =      2    charge: 1-file 2-atom 10-const
   ISPIN  =      2    spin polarized calculation?
   LNONCOLLINEAR =      F non collinear calculations
   LSORBIT =      F    spin-orbit coupling
   INIWAV =      1    electr: 0-lowe 1-rand  2-diag
   LASPH  =      F    aspherical Exc in radial PAW
   METAGGA=      F    non-selfconsistent MetaGGA calc.

 Electronic Relaxation 1
   ENCUT  =  600.0 eV  44.10 Ry    6.64 a.u.  27.95 64.43 10.94*2*pi/ulx,y,z
   ENINI  =  600.0     initial cutoff
   ENAUG  =  644.9 eV  augmentation charge cutoff
   NELM   =     80;   NELMIN=  3; NELMDL= -8     # of ELM steps 
   EDIFF  = 0.1E-05   stopping-criterion for ELM
   LREAL  =      T    real-space projection
   NLSPLINE    = F    spline interpolate recip. space projectors
   LCOMPAT=      F    compatible to vasp.4.4
   GGA_COMPAT  = T    GGA compatible to vasp.4.4-vasp.4.6
   LMAXPAW     = -100 max onsite density
   LMAXMIX     =    2 max onsite mixed and CHGCAR
   VOSKOWN=      0    Vosko Wilk Nusair interpolation
   ROPT   =   -0.00050  -0.00050  -0.00050  -0.00050
   ROPT   =   -0.00050
 Ionic relaxation
   EDIFFG = -.1E-01   stopping-criterion for IOM
   NSW    =   1000    number of steps for IOM
   NBLOCK =      1;   KBLOCK =   1000    inner block; outer block 
   IBRION =      2    ionic relax: 0-MD 1-quasi-New 2-CG
   NFREE  =      1    steps in history (QN), initial steepest desc. (CG)
   ISIF   =      4    stress and relaxation
   IWAVPR =     11    prediction:  0-non 1-charg 2-wave 3-comb
   ISYM   =      0    0-nonsym 1-usesym 2-fastsym
   LCORR  =      T    Harris-Foulkes like correction to forces

   POTIM  = 0.5000    time-step for ionic-motion
   TEIN   =    0.0    initial temperature
   TEBEG  =    0.0;   TEEND  =   0.0 temperature during run
   SMASS  =  -3.00    Nose mass-parameter (am)
   estimated Nose-frequenzy (Omega)   =  0.10E-29 period in steps =****** mass=  -0.448E-26a.u.
   SCALEE = 1.0000    scale energy and forces
   NPACO  =    256;   APACO  = 16.0  distance and # of slots for P.C.
   PSTRESS=    0.0 pullay stress

  Mass of Ions in am
   POMASS =  12.01 55.85  1.00 14.00 16.00
  Ionic Valenz
   ZVAL   =   4.00  8.00  1.00  5.00  6.00
  Atomic Wigner-Seitz radii
   RWIGS  =  -1.00 -1.00 -1.00 -1.00 -1.00
  virtual crystal weights 
   VCA    =   1.00  1.00  1.00  1.00  1.00
   NELECT =     600.0000    total number of electrons
   NUPDOWN=      -1.0000    fix difference up-down

 DOS related values:
   EMIN   =  10.00;   EMAX   =-10.00  energy-range for DOS
   EFERMI =   0.00
   ISMEAR =     0;   SIGMA  =   0.05  broadening in eV -4-tet -1-fermi 0-gaus

 Electronic relaxation 2 (details)
   IALGO  =     38    algorithm
   LDIAG  =      T    sub-space diagonalisation (order eigenvalues)
   LSUBROT=      F    optimize rotation matrix (better conditioning)
   TURBO    =      0    0=normal 1=particle mesh
   IRESTART =      0    0=no restart 2=restart with 2 vectors
   NREBOOT  =      0    no. of reboots
   NMIN     =      0    reboot dimension
   EREF     =   0.00    reference energy to select bands
   IMIX   =      4    mixing-type and parameters
     AMIX     =   0.40;   BMIX     =  1.00
     AMIX_MAG =   1.60;   BMIX_MAG =  1.00
     AMIN     =   0.10
     WC   =   100.;   INIMIX=   1;  MIXPRE=   1;  MAXMIX= -45

 Intra band minimization:
   WEIMIN = 0.0010     energy-eigenvalue tresh-hold
   EBREAK =  0.65E-09  absolut break condition
   DEPER  =   0.30     relativ break condition  

   TIME   =   0.40     timestep for ELM

  volume/ion in A,a.u.               =      15.77       106.44
  Fermi-wavevector in a.u.,A,eV,Ry     =   1.022790  1.932793 14.233048  1.046100
  Thomas-Fermi vector in A             =   2.156488
 
 Write flags
   LWAVE        =      T    write WAVECAR
   LDOWNSAMPLE  =      F    k-point downsampling of WAVECAR
   LCHARG       =      T    write CHGCAR
   LVTOT        =      F    write LOCPOT, total local potential
   LVHAR        =      F    write LOCPOT, Hartree potential only
   LELF         =      F    write electronic localiz. function (ELF)
   LORBIT       =      0    0 simple, 1 ext, 2 COOP (PROOUT), +10 PAW based schemes


 Dipole corrections
   LMONO  =      F    monopole corrections only (constant potential shift)
   LDIPOL =      F    correct potential (dipole corrections)
   IDIPOL =      0    1-x, 2-y, 3-z, 4-all directions 
   EPSILON=  1.0000000 bulk dielectric constant

 Exchange correlation treatment:
   GGA     =    PE    GGA type
   LEXCH   =     8    internal setting for exchange type
   VOSKOWN=      0    Vosko Wilk Nusair interpolation
   LHFCALC =     F    Hartree Fock is set to
   LHFONE  =     F    Hartree Fock one center treatment
   AEXX    =    0.0000 exact exchange contribution

 Linear response parameters
   LEPSILON=     F    determine dielectric tensor
   LRPA    =     F    only Hartree local field effects (RPA)
   LNABLA  =     F    use nabla operator in PAW spheres
   LVEL    =     F    velocity operator in full k-point grid
   LINTERFAST=   F  fast interpolation
   KINTER  =     0    interpolate to denser k-point grid
   CSHIFT  =0.1000    complex shift for real part using Kramers Kronig
   OMEGAMAX=  -1.0    maximum frequency
   DEG_THRESHOLD= 0.2000000E-02 threshold for treating states as degnerate
   RTIME   =   -0.100 relaxation time in fs
  (WPLASMAI=    0.000 imaginary part of plasma frequency in eV, 0.658/RTIME)
   DFIELD  = 0.0000000 0.0000000 0.0000000 field for delta impulse in time
 
 Orbital magnetization related:
   ORBITALMAG=     F  switch on orbital magnetization
   LCHIMAG   =     F  perturbation theory with respect to B field
   DQ        =  0.001000  dq finite difference perturbation B field
   LLRAUG    =     F  two centre corrections for induced B field



--------------------------------------------------------------------------------------------------------


 conjugate gradient relaxation of ions
 charge density and potential will be updated during run
 spin polarized calculation
 Variant of blocked Davidson
 Davidson routine will perform the subspace rotation
 perform sub-space diagonalisation
    after iterative eigenvector-optimisation
 modified Broyden-mixing scheme, WC =      100.0
 initial mixing is a Kerker type mixing with AMIX =  0.4000 and BMIX =      1.0000
 Hartree-type preconditioning will be used
 using additional bands           84
 real space projection scheme for non local part
 use partial core corrections
 calculate Harris-corrections to forces 
   (improved forces if not selfconsistent)
 use gradient corrections 
 use of overlap-Matrix (Vanderbilt PP)
 Gauss-broadening in eV      SIGMA  =   0.05


--------------------------------------------------------------------------------------------------------


  energy-cutoff  :      600.00
  volume of cell :     2460.46
      direct lattice vectors                 reciprocal lattice vectors
    13.993750188  0.000916841 -0.013981268     0.071460509  0.000003527  0.000036410
    -0.002309320 32.226113254  1.410369052    -0.000003775  0.031106803 -0.001738109
    -0.002801835  0.305603850  5.469375344     0.000183647 -0.008021396  0.183284529

  length of vectors
    13.993757202 32.256960825  5.477907284     0.071460518  0.031155325  0.183460064


 
 k-points in units of 2pi/SCALE and weight: read from INCAR                         
   0.00000000  0.00000000  0.00000000       0.125
   0.03573025  0.00000176  0.00001821       0.125
   0.00004591 -0.00200535  0.04582113       0.250
   0.03577617 -0.00200359  0.04583934       0.250
   0.00009182 -0.00401070  0.09164226       0.125
   0.03582208 -0.00400893  0.09166047       0.125
 
 k-points in reciprocal lattice and weights: read from INCAR                         
   0.00000000  0.00000000  0.00000000       0.125
   0.50000000 -0.00000000 -0.00000000       0.125
  -0.00000000  0.00000000  0.25000000       0.250
   0.50000000  0.00000000  0.25000000       0.250
  -0.00000000  0.00000000  0.50000000       0.125
   0.50000000  0.00000000  0.50000000       0.125
 
 position of ions in fractional coordinates (direct lattice) 
   0.84078070  0.95592786  0.10584934
   0.92082700  0.96542777  0.44982904
   0.83582238  0.80834998  0.89904275
   0.65927418  0.45600575  0.60451726
   0.58465633  0.29783300  0.05420951
   0.07996900  0.79679446  0.05713639
   0.57923049  0.46543745  0.94797963
   0.66413494  0.30830796  0.39748667
   0.41443770  0.46425676  0.44820496
   0.16001990  0.80625673  0.40115559
   0.08556022  0.96432969  0.95074992
   0.42010227  0.29686198  0.55366372
   0.91525037  0.79780491  0.55641630
   0.16509995  0.95373764  0.60833832
   0.34003922  0.30639470  0.89694312
   0.33494528  0.45379952  0.10490253
   0.76333491  0.03702631  0.44894507
   0.86623728  0.05566850  0.07814161
   0.85766651  0.70852977  0.93001314
   0.63359301  0.55574297  0.57742828
   0.64194790  0.20848254  0.42815062
   0.23716072  0.72514660  0.05747196
   0.73652270  0.53706325  0.94890661
   0.74486806  0.22720748  0.05744054
   0.25412516  0.53483600  0.44617739
   0.13417357  0.70650975  0.42818559
   0.14291414  0.05345663  0.57636912
   0.36611453  0.20671415  0.92556046
   0.75479179  0.72727360  0.55843172
   0.24573882  0.03503976  0.94836812
   0.26299614  0.22509319  0.55403534
   0.35696804  0.55355101  0.07534750
   0.73186159  0.08096504  0.43724860
   0.83592715  0.09960146  0.07987986
   0.82695516  0.66466443  0.92857863
   0.66379725  0.59968064  0.57972429
   0.67266186  0.16460925  0.42705829
   0.26820839  0.68116452  0.06838242
   0.76787753  0.58101004  0.93778881
   0.77671692  0.18329405  0.06970731
   0.22243475  0.57876446  0.43426157
   0.16399933  0.66253412  0.42556449
   0.17337776  0.09736484  0.57686936
   0.33623956  0.16272394  0.92405260
   0.72287209  0.68337397  0.57048377
   0.27757344  0.07895711  0.93510128
   0.23193028  0.18109898  0.56598410
   0.32660872  0.59744659  0.07712734
   0.66551899  0.09281273  0.60660135
   0.87281258  0.12983570  0.90607759
   0.86370394  0.63444159  0.10290430
   0.62685506  0.62992918  0.40580247
   0.63593954  0.13441329  0.60129046
   0.33446445  0.66929188  0.89888621
   0.83420302  0.59284057  0.10769274
   0.84326233  0.17145026  0.90086187
   0.15596953  0.59062212  0.60329301
   0.12681456  0.63227840  0.59877932
   0.13637401  0.12745057  0.40211234
   0.37334139  0.13260598  0.09850544
   0.65635879  0.67154737  0.40099403
   0.34404249  0.09095247  0.10422400
   0.16559419  0.16910266  0.39655835
   0.36360530  0.62764575  0.90335924
   0.85938954  0.98503669  0.27302007
   0.85275619  0.77895312  0.73270427
   0.64063322  0.48508339  0.77174797
   0.64705445  0.27892270  0.23104420
   0.14137167  0.77716392  0.23389852
   0.35178219  0.48312026  0.27188282
   0.14817294  0.98314460  0.77464295
   0.35868090  0.27727087  0.73001516
   0.76926952  0.11093580  0.25601177
   0.76029852  0.65337494  0.75185498
   0.73040853  0.61100228  0.75645923
   0.73932584  0.15330682  0.25090965
   0.23050784  0.65118268  0.24913538
   0.26006236  0.60877316  0.25349399
   0.24000692  0.10882622  0.75316135
   0.26965509  0.15123742  0.74768676
   0.96870344  0.88128088  0.00320787
   0.03201513  0.88087289  0.50406875
   0.53151438  0.38131663  0.50050656
   0.46807128  0.38094122  0.00078661
   0.42462661  0.14235233  0.23154183
   0.86206518  0.56899654  0.24429178
   0.87115552  0.19526720  0.76438412
   0.63773948  0.06899575  0.74323647
   0.62845596  0.69537508  0.26437359
   0.57548125  0.62031937  0.27258503
   0.07552252  0.64191987  0.73172309
   0.08507620  0.11768858  0.26917417
   0.91504706  0.64406969  0.23614825
   0.13752616  0.19285341  0.25969893
   0.12790210  0.56679048  0.73943298
   0.36253603  0.69312927  0.76281967
   0.41481470  0.61797138  0.77033358
   0.58459134  0.14405578  0.73408445
   0.92420364  0.12021586  0.77330859
   0.37197854  0.06722734  0.24144378
   0.54718561  0.47769262  0.10609427
   0.45212761  0.28455424  0.39569296
   0.29220041  0.45655273  0.93829780
   0.20260572  0.80298991  0.56799718
   0.05421781  0.97709052  0.10817283
   0.29745970  0.30316442  0.06346962
   0.79818026  0.95917393  0.93903622
   0.94654295  0.78506995  0.39883686
   0.20786431  0.95641383  0.44211040
   0.70185886  0.45927996  0.43800352
   0.55331086  0.28512062  0.89640157
   0.95285068  0.97771822  0.60810019
   0.70686572  0.30557426  0.56411198
   0.44577269  0.47695352  0.60609911
   0.04795040  0.78451276  0.89882142
   0.79304522  0.80565269  0.06524421
   0.88884283  0.92059125  0.18006881
   0.93801717  0.92655857  0.39109375
   0.88584572  0.84313469  0.82491072
   0.61128111  0.42065118  0.67821865
   0.56545006  0.33657037  0.11227170
   0.06280742  0.83565764  0.11595248
   0.56210645  0.42657906  0.88890843
   0.61425920  0.34313832  0.32291360
   0.43396365  0.42559309  0.38943869
   0.11197951  0.84160462  0.32701300
   0.06613787  0.92561462  0.89248963
   0.43728743  0.33573058  0.61244107
   0.93462152  0.83652413  0.61467295
   0.11497149  0.91897774  0.68238597
   0.38810079  0.34172126  0.82302709
   0.38515699  0.41903316  0.17881324
   0.82699292  0.02695177  0.26344296
   0.81883794  0.73725094  0.74381617
   0.67293901  0.52700419  0.76275360
   0.68083252  0.23719875  0.24232615
   0.17361810  0.73523267  0.24320979
   0.31797696  0.52482878  0.26096683
   0.18191354  0.02486819  0.76302015
   0.32657716  0.23531781  0.73979053
   0.73590006  0.01023071  0.60897537
   0.92227373  0.04425385  0.92550992
   0.91385946  0.71988683  0.08290814
   0.57758438  0.54433138  0.42429627
   0.58577499  0.21985537  0.58063072
   0.26482371  0.75196758  0.89787722
   0.76402489  0.51024489  0.10895685
   0.77210893  0.25401190  0.89724494
   0.22690068  0.50803882  0.60643089
   0.07838460  0.71796871  0.58126129
   0.08675214  0.04195999  0.42384349
   0.42201633  0.21827680  0.07847650
   0.72761056  0.75408144  0.39795888
   0.27285608  0.00838965  0.10981099
   0.23531970  0.25179781  0.39356370
   0.41300344  0.54216514  0.92260902
 
 position of ions in cartesian coordinates  (Angst):
  11.76317092 30.83895844  1.91538567
  12.88233319 31.25029834  3.80901895
  11.69190386 26.32549541  6.04558822
   9.22297140 14.88064012  3.94025070
   8.18069489  9.61510272  0.70837237
   1.11706610 25.69512301  1.43515654
   8.10187590 15.28947724  5.83319662
   9.29191276 10.05764973  2.59954633
   5.79720974 15.09854415  3.10038017
   2.23629268 26.10526220  3.32895276
   1.19241755 31.36722920  6.55887267
   5.87656947  9.73629464  3.44100606
  12.80438373 25.88103347  4.15565256
   2.30646054 30.92131922  4.67004437
   4.75520324 10.14833118  5.33309402
   4.68579869 14.65656056  1.20909314
  10.68057473  1.33111336  2.49699748
  12.12156060  1.81865404  0.49378784
  11.99772898 23.11816242  6.07388813
   8.86344112 18.08648097  3.93311623
   8.98157742  6.85001508  2.62677855
   3.31693231 23.38643760  1.33374423
  10.30281576 17.59812580  5.93708628
  10.42281195  7.34025092  0.62419608
   3.55367873 17.37227213  3.19107480
   1.87476020 22.89904145  3.33647128
   1.99816644  1.89897118  3.22577451
   5.12024461  6.94478416  5.34866206
  10.55912358 23.60855245  4.06944394
   3.43606952  1.41924567  5.23296449
   3.67823022  7.42343518  3.34401467
   4.99383215 17.86215130  1.18782408
  10.24007619  2.74348443  2.49543496
  11.69730189  3.23494607  0.56568043
  11.56806724 21.70408675  6.00460535
   9.28600378 19.50315085  4.00722004
   9.41148534  5.43584360  2.55849721
   3.75147655 21.97242893  1.33095257
  10.74151711 19.01099128  5.93782167
  10.86856390  5.92886976  0.62890819
   3.11014303 18.78424503  3.18830107
   2.29224328 21.48110405  3.25969663
   2.42436396  3.31414276  3.29001137
   4.70228761  5.52666250  5.27879025
  10.11251498 22.19749164  4.07389269
   3.88149097  2.83050567  5.22189770
   3.24357044  6.00929593  3.34775318
   4.56888507 19.27725146  1.25989218
   9.31119250  3.17698342  3.43932589
  12.21108264  4.46180093  5.12659167
  12.08470376 20.47782626  1.44554332
   8.76946146 20.42475860  3.09915443
   8.89718391  4.51595769  3.46936433
   4.67634777 21.84368552  5.85561837
  11.67195788 19.13862353  1.41347279
  11.79748236  5.80125536  5.15716995
   2.17954440 19.21796690  4.13045040
   1.77147347 20.55898070  4.16492171
   1.90696281  4.23024858  2.37714896
   5.22386396  4.30382114  0.72056678
   9.18224662 21.76450861  3.13113977
   4.81394260  2.96321114  0.69350658
   2.31578207  5.57086315  2.40510840
   5.08422124 20.50298632  5.82093920
  12.02304278 31.82812780  2.87049914
  11.92940538 25.32733041  5.09412340
   8.96157878 15.86878886  4.89616908
   9.05342692  9.05979579  1.64800473
   1.97586971 25.11658243  2.37339017
   4.92087458 15.65249924  2.16348869
   2.06905428 31.91979898  5.62133811
   5.01660523  9.15878675  4.37876635
  10.76399203  3.65397321  1.54592951
  10.63581214 21.28620157  5.02304693
  10.21762399 19.92207515  4.98888614
  10.34488405  5.01783961  1.57820156
   3.22346729 21.06143482  2.27779999
   3.63713155 19.69610006  2.24141260
   3.35623535  3.73743502  4.26945162
   3.77104175  5.10253748  4.29890996
  13.55374983 28.40212606  1.24693265
   0.44456522 28.54118434  3.99884943
   7.43559654 12.44179684  3.26782417
   6.54919062 12.27692453  0.53502572
   5.94114126  4.65861178  1.46122166
  12.06152627 18.41199398  2.12656580
  12.18814014  6.52710046  4.44392261
   8.92212525  2.45118556  4.15343227
   8.79210906 22.49060593  2.41790727
   8.05094464 20.07431298  2.35770312
   1.05331072 20.91026897  4.90635622
   1.18950915  3.87498429  1.63700945
  12.80279092 20.82886960  2.18716586
   1.92333372  6.29440696  1.69046260
   1.78644931 18.49154507  4.84183205
   5.06950070 22.57031546  5.14464648
   5.80122780 20.15061289  5.07901158
   8.17823572  4.86723301  4.20998186
  12.93063057  4.11126335  4.38614215
   5.20454297  2.24060313  1.41016129
   7.65577838 15.42710086  1.24634191
   6.32519500  9.29141691  2.55919850
   4.08529627 14.99993516  5.77172536
   2.83176799 26.05101173  4.23626923
   0.75615105 31.52093749  1.96893798
   4.16169879  9.78948029  0.77055401
  11.16468908 31.19815269  6.47757122
  13.24275513 25.42250691  3.27539297
   2.90535386 30.95680172  3.76405799
   9.81934978 14.93530704  3.03354701
   7.73972398  9.46278032  5.29714595
  13.32999269 31.69476948  4.69154966
   9.88941613 10.02051371  3.50642979
   6.23523208 15.55599316  3.98143154
   0.66667583 25.55652421  6.02177384
  11.09563339 25.98372091  1.48202492
  12.43561402 29.72292268  2.27081018
  13.12314249 29.97976104  3.43271335
  12.39204543 27.42386193  5.68849218
   8.55124342 13.76377936  4.29415929
   7.91167507 10.88118385  1.08083876
   0.87665671 26.96549098  1.81189517
   7.86250152 14.01915444  5.45554877
   8.59409260 11.15726103  2.24149925
   6.07070488 13.83462282  2.72416230
   1.56415355 27.22168503  2.97396432
   0.92087866 30.10177057  6.18589433
   6.11679981 11.00685688  3.81706028
  13.07520600 27.14662466  4.52861761
   1.60484815 29.82372585  5.02671534
   5.42789036 11.26422413  4.97797102
   5.38832203 13.55880927  1.56360314
  11.57193197  0.94981808  1.46731796
  11.45482703 23.98679617  5.09655732
   9.41358629 17.21701419  4.90564761
   9.52617346  7.71867367  1.65039156
   2.42718895 23.76817647  2.36472763
   4.44774693 16.99323583  2.16308212
   2.54345732  1.03475381  4.20577352
   4.56742294  7.80976057  4.37351109
  10.29627175  0.51647600  3.33485516
  12.90337285  1.70981443  5.11148086
  12.78642620 23.22532931  1.45598493
   8.08012571 17.67188078  3.08026833
   8.19505434  7.26306401  3.47757468
   3.70162460 24.50762987  5.96767677
  10.69008990 16.47720760  1.30487744
  10.80159895  8.46072572  5.25482482
   3.17231913 16.55765233  4.03014803
   1.09360786 23.31504867  4.19064110
   1.21270339  1.48181514  2.37612529
   5.90486721  7.05858268  0.73116795
  10.17914397 24.42339876  3.22994671
   3.81795276  0.30417470  0.60861516
   3.29132095  8.23495505  2.50438538
   5.77562999 17.75420672  5.80497364
 


--------------------------------------------------------------------------------------------------------


 k-point  1 :   0.0000 0.0000 0.0000  plane waves:   81919
 k-point  2 :   0.5000-0.0000-0.0000  plane waves:   82014
 k-point  3 :  -0.0000 0.0000 0.2500  plane waves:   82054
 k-point  4 :   0.5000 0.0000 0.2500  plane waves:   82195
 k-point  5 :  -0.0000 0.0000 0.5000  plane waves:   82252
 k-point  6 :   0.5000 0.0000 0.5000  plane waves:   82150

 maximum and minimum number of plane-waves per node :     20591    20437

 maximum number of plane-waves:     82252
 maximum index in each direction: 
   IXMAX=   27   IYMAX=   64   IZMAX=   10
   IXMIN=  -28   IYMIN=  -64   IZMIN=  -11


 real space projection operators:
  total allocation   :      12367.41 KBytes
  max/ min on nodes  :       3097.20       3085.75


 parallel 3D FFT for wavefunctions:
    minimum data exchange during FFTs selected (reduces bandwidth)
 parallel 3D FFT for charge:
    minimum data exchange during FFTs selected (reduces bandwidth)


 total amount of memory used by VASP MPI-rank0   114186. kBytes
=======================================================================

   base      :      30000. kBytes
   nonlr-proj:      10389. kBytes
   fftplans  :       6372. kBytes
   grid      :      17994. kBytes
   one-center:       1213. kBytes
   wavefun   :      48218. kBytes
 
     INWAV:  cpu time    0.0002: real time    0.0006
 Broyden mixing: mesh for mixing (old mesh)
   NGX = 55   NGY =129   NGZ = 21
  (NGX  =168   NGY  =392   NGZ  = 72)
  gives a total of 148995 points

 initial charge density was supplied:
 charge density of overlapping atoms calculated
 number of electron     600.0000000 magnetization       0.0000000
 keeping initial charge density in first step


--------------------------------------------------------------------------------------------------------


 Maximum index for non-local projection operator          613
 Maximum index for augmentation-charges          417 (set IRDMAX)


--------------------------------------------------------------------------------------------------------


 First call to EWALD:  gamma=   0.131
 Maximum number of real-space cells 3x 1x 6
 Maximum number of reciprocal cells 3x 6x 1

    FEWALD:  cpu time    0.0150: real time    0.0150


--------------------------------------- Iteration      1(   1)  ---------------------------------------


    POTLOK:  cpu time    0.2951: real time    0.4138
    SETDIJ:  cpu time    0.0619: real time    0.0622
     EDDAV:  cpu time   28.7126: real time   28.8438
       DOS:  cpu time    0.0043: real time    0.0045
    --------------------------------------------
      LOOP:  cpu time   29.0740: real time   29.3245

 eigenvalue-minimisations  :  9216
 total energy-change (2. order) : 0.4913846E+04  (-0.2952441E+05)
 number of electron     600.0000000 magnetization       0.0000000
 augmentation part      600.0000000 magnetization       0.0000000

 Free energy of the ion-electron system (eV)
  ---------------------------------------------------
  alpha Z        PSCENC =       720.39869377
  Ewald energy   TEWEN  =     13704.34741074
  -Hartree energ DENC   =    -38212.98877062
  -exchange      EXHF   =         0.00000000
  -V(xc)+E(xc)   XCENC  =      2065.40478785
  PAW double counting   =     21424.79691592   -21559.01982888
  entropy T*S    EENTRO =        -0.03976420
  eigenvalues    EBANDS =     -1044.65815720
  atomic energy  EATOM  =     27815.60422923
  Solvation  Ediel_sol  =         0.00000000
  ---------------------------------------------------
  free energy    TOTEN  =      4913.84551661 eV

  energy without entropy =     4913.88528080  energy(sigma->0) =     4913.86539871


--------------------------------------------------------------------------------------------------------




--------------------------------------- Iteration      1(   2)  ---------------------------------------


     EDDAV:  cpu time   35.1129: real time   35.1577
       DOS:  cpu time    0.0039: real time    0.0039
    --------------------------------------------
      LOOP:  cpu time   35.1168: real time   35.1616

 eigenvalue-minimisations  : 11936
 total energy-change (2. order) :-0.5500642E+04  (-0.5295912E+04)
 number of electron     600.0000000 magnetization       0.0000000
 augmentation part      600.0000000 magnetization       0.0000000

 Free energy of the ion-electron system (eV)
  ---------------------------------------------------
  alpha Z        PSCENC =       720.39869377
  Ewald energy   TEWEN  =     13704.34741074
  -Hartree energ DENC   =    -38212.98877062
  -exchange      EXHF   =         0.00000000
  -V(xc)+E(xc)   XCENC  =      2065.40478785
  PAW double counting   =     21424.79691592   -21559.01982888
  entropy T*S    EENTRO =        -0.00310810
  eigenvalues    EBANDS =     -6545.33704942
  atomic energy  EATOM  =     27815.60422923
  Solvation  Ediel_sol  =         0.00000000
  ---------------------------------------------------
  free energy    TOTEN  =      -586.79671951 eV

  energy without entropy =     -586.79361141  energy(sigma->0) =     -586.79516546


--------------------------------------------------------------------------------------------------------




--------------------------------------- Iteration      1(   3)  ---------------------------------------


     EDDAV:  cpu time   32.6233: real time   32.6624
       DOS:  cpu time    0.0045: real time    0.0044
    --------------------------------------------
      LOOP:  cpu time   32.6278: real time   32.6668

 eigenvalue-minimisations  : 11136
 total energy-change (2. order) :-0.6824415E+03  (-0.6734125E+03)
 number of electron     600.0000000 magnetization       0.0000000
 augmentation part      600.0000000 magnetization       0.0000000

 Free energy of the ion-electron system (eV)
  ---------------------------------------------------
  alpha Z        PSCENC =       720.39869377
  Ewald energy   TEWEN  =     13704.34741074
  -Hartree energ DENC   =    -38212.98877062
  -exchange      EXHF   =         0.00000000
  -V(xc)+E(xc)   XCENC  =      2065.40478785
  PAW double counting   =     21424.79691592   -21559.01982888
  entropy T*S    EENTRO =        -0.07231191
  eigenvalues    EBANDS =     -7227.70932232
  atomic energy  EATOM  =     27815.60422923
  Solvation  Ediel_sol  =         0.00000000
  ---------------------------------------------------
  free energy    TOTEN  =     -1269.23819622 eV

  energy without entropy =    -1269.16588431  energy(sigma->0) =    -1269.20204027


--------------------------------------------------------------------------------------------------------




--------------------------------------- Iteration      1(   4)  ---------------------------------------


     EDDAV:  cpu time   37.4797: real time   37.5211
       DOS:  cpu time    0.0045: real time    0.0045
    --------------------------------------------
      LOOP:  cpu time   37.4842: real time   37.5256

 eigenvalue-minimisations  : 13504
 total energy-change (2. order) :-0.2769793E+02  (-0.2743175E+02)
 number of electron     600.0000000 magnetization       0.0000000
 augmentation part      600.0000000 magnetization       0.0000000

 Free energy of the ion-electron system (eV)
  ---------------------------------------------------
  alpha Z        PSCENC =       720.39869377
  Ewald energy   TEWEN  =     13704.34741074
  -Hartree energ DENC   =    -38212.98877062
  -exchange      EXHF   =         0.00000000
  -V(xc)+E(xc)   XCENC  =      2065.40478785
  PAW double counting   =     21424.79691592   -21559.01982888
  entropy T*S    EENTRO =        -0.06247248
  eigenvalues    EBANDS =     -7255.41709292
  atomic energy  EATOM  =     27815.60422923
  Solvation  Ediel_sol  =         0.00000000
  ---------------------------------------------------
  free energy    TOTEN  =     -1296.93612740 eV

  energy without entropy =    -1296.87365492  energy(sigma->0) =    -1296.90489116


--------------------------------------------------------------------------------------------------------




--------------------------------------- Iteration      1(   5)  ---------------------------------------


     EDDAV:  cpu time   35.3299: real time   35.3672
       DOS:  cpu time    0.0045: real time    0.0045
    --------------------------------------------
      LOOP:  cpu time   35.3344: real time   35.3716

 eigenvalue-minimisations  : 12128
 total energy-change (2. order) :-0.6080173E+00  (-0.6056878E+00)
 number of electron     600.0000000 magnetization       0.0000000
 augmentation part      600.0000000 magnetization       0.0000000

 Free energy of the ion-electron system (eV)
  ---------------------------------------------------
  alpha Z        PSCENC =       720.39869377
  Ewald energy   TEWEN  =     13704.34741074
  -Hartree energ DENC   =    -38212.98877062
  -exchange      EXHF   =         0.00000000
  -V(xc)+E(xc)   XCENC  =      2065.40478785
  PAW double counting   =     21424.79691592   -21559.01982888
  entropy T*S    EENTRO =        -0.06221880
  eigenvalues    EBANDS =     -7256.02536389
  atomic energy  EATOM  =     27815.60422923
  Solvation  Ediel_sol  =         0.00000000
  ---------------------------------------------------
  free energy    TOTEN  =     -1297.54414468 eV

  energy without entropy =    -1297.48192588  energy(sigma->0) =    -1297.51303528


--------------------------------------------------------------------------------------------------------




--------------------------------------- Iteration      1(   6)  ---------------------------------------


     EDDAV:  cpu time   39.6266: real time   39.6713
       DOS:  cpu time    0.0044: real time    0.0044
    --------------------------------------------
      LOOP:  cpu time   39.6310: real time   39.6757

 eigenvalue-minimisations  : 14080
 total energy-change (2. order) :-0.3396639E-01  (-0.3394405E-01)
 number of electron     600.0000000 magnetization       0.0000000
 augmentation part      600.0000000 magnetization       0.0000000

 Free energy of the ion-electron system (eV)
  ---------------------------------------------------
  alpha Z        PSCENC =       720.39869377
  Ewald energy   TEWEN  =     13704.34741074
  -Hartree energ DENC   =    -38212.98877062
  -exchange      EXHF   =         0.00000000
  -V(xc)+E(xc)   XCENC  =      2065.40478785
  PAW double counting   =     21424.79691592   -21559.01982888
  entropy T*S    EENTRO =        -0.06224216
  eigenvalues    EBANDS =     -7256.05930692
  atomic energy  EATOM  =     27815.60422923
  Solvation  Ediel_sol  =         0.00000000
  ---------------------------------------------------
  free energy    TOTEN  =     -1297.57811107 eV

  energy without entropy =    -1297.51586891  energy(sigma->0) =    -1297.54698999


--------------------------------------------------------------------------------------------------------




--------------------------------------- Iteration      1(   7)  ---------------------------------------


     EDDAV:  cpu time   34.5103: real time   34.5474
       DOS:  cpu time    0.0049: real time    0.0049
    --------------------------------------------
      LOOP:  cpu time   34.5152: real time   34.5523

 eigenvalue-minimisations  : 12224
 total energy-change (2. order) :-0.6111386E-03  (-0.6108320E-03)
 number of electron     600.0000000 magnetization       0.0000000
 augmentation part      600.0000000 magnetization       0.0000000

 Free energy of the ion-electron system (eV)
  ---------------------------------------------------
  alpha Z        PSCENC =       720.39869377
  Ewald energy   TEWEN  =     13704.34741074
  -Hartree energ DENC   =    -38212.98877062
  -exchange      EXHF   =         0.00000000
  -V(xc)+E(xc)   XCENC  =      2065.40478785
  PAW double counting   =     21424.79691592   -21559.01982888
  entropy T*S    EENTRO =        -0.06224481
  eigenvalues    EBANDS =     -7256.05991540
  atomic energy  EATOM  =     27815.60422923
  Solvation  Ediel_sol  =         0.00000000
  ---------------------------------------------------
  free energy    TOTEN  =     -1297.57872221 eV

  energy without entropy =    -1297.51647739  energy(sigma->0) =    -1297.54759980


--------------------------------------------------------------------------------------------------------




--------------------------------------- Iteration      1(   8)  ---------------------------------------


     EDDAV:  cpu time   39.6075: real time   39.6520
       DOS:  cpu time    0.0047: real time    0.0047
    CHARGE:  cpu time    1.1023: real time    1.1046
    MIXING:  cpu time    0.0093: real time    0.0118
    --------------------------------------------
      LOOP:  cpu time   40.7239: real time   40.7732

 eigenvalue-minimisations  : 14016
 total energy-change (2. order) :-0.2063170E-04  (-0.2063002E-04)
 number of electron     600.0000077 magnetization      -0.0002559
 augmentation part       32.7405594 magnetization       0.0024221

 Broyden mixing:
  rms(total) = 0.92180E+01    rms(broyden)= 0.92173E+01
  rms(prec ) = 0.98279E+01
  weight for this iteration     100.00

 Free energy of the ion-electron system (eV)
  ---------------------------------------------------
  alpha Z        PSCENC =       720.39869377
  Ewald energy   TEWEN  =     13704.34741074
  -Hartree energ DENC   =    -38212.98877062
  -exchange      EXHF   =         0.00000000
  -V(xc)+E(xc)   XCENC  =      2065.40478785
  PAW double counting   =     21424.79691592   -21559.01982888
  entropy T*S    EENTRO =        -0.06224492
  eigenvalues    EBANDS =     -7256.05993592
  atomic energy  EATOM  =     27815.60422923
  Solvation  Ediel_sol  =         0.00000000
  ---------------------------------------------------
  free energy    TOTEN  =     -1297.57874284 eV

  energy without entropy =    -1297.51649792  energy(sigma->0) =    -1297.54762038


--------------------------------------------------------------------------------------------------------




--------------------------------------- Iteration      1(   9)  ---------------------------------------


    POTLOK:  cpu time    0.2490: real time    0.2500
    SETDIJ:  cpu time    0.0605: real time    0.0605
     EDDAV:  cpu time   43.6347: real time   43.6828
       DOS:  cpu time    0.0049: real time    0.0050
    CHARGE:  cpu time    1.0267: real time    1.0277
    MIXING:  cpu time    0.0099: real time    0.0222
    --------------------------------------------
      LOOP:  cpu time   44.9857: real time   45.0481

 eigenvalue-minimisations  : 15360
 total energy-change (2. order) :-0.3454733E+03  (-0.3705417E+03)
 number of electron     599.9999999 magnetization      -0.0014206
 augmentation part       55.2037533 magnetization       0.1869120

 Broyden mixing:
  rms(total) = 0.35553E+02    rms(broyden)= 0.35553E+02
  rms(prec ) = 0.35913E+02
  weight for this iteration     100.00

 eigenvalues of (default mixing * dielectric matrix)
  average eigenvalue GAMMA=   0.0624
  0.0624

 Free energy of the ion-electron system (eV)
  ---------------------------------------------------
  alpha Z        PSCENC =       720.39869377
  Ewald energy   TEWEN  =     13704.34741074
  -Hartree energ DENC   =    -38740.16742489
  -exchange      EXHF   =         0.00000000
  -V(xc)+E(xc)   XCENC  =      2104.60815009
  PAW double counting   =     32209.28408260   -32305.20921762
  entropy T*S    EENTRO =        -0.10815256
  eigenvalues    EBANDS =     -7151.80978994
  atomic energy  EATOM  =     27815.60422923
  Solvation  Ediel_sol  =         0.00000000
  ---------------------------------------------------
  free energy    TOTEN  =     -1643.05201858 eV

  energy without entropy =    -1642.94386602  energy(sigma->0) =    -1642.99794230


--------------------------------------------------------------------------------------------------------




--------------------------------------- Iteration      1(  10)  ---------------------------------------


    POTLOK:  cpu time    0.2525: real time    0.2539
    SETDIJ:  cpu time    0.0603: real time    0.0603
     EDDAV:  cpu time   32.3970: real time   32.4318
       DOS:  cpu time    0.0046: real time    0.0046
    CHARGE:  cpu time    1.0248: real time    1.0259
    MIXING:  cpu time    0.0067: real time    0.0112
    --------------------------------------------
      LOOP:  cpu time   33.7459: real time   33.7876

 eigenvalue-minimisations  : 11360
 total energy-change (2. order) : 0.8185687E+02  (-0.2940059E+02)
 number of electron     600.0000004 magnetization      -0.0012510
 augmentation part       53.7960900 magnetization       0.1147430

 Broyden mixing:
  rms(total) = 0.22985E+02    rms(broyden)= 0.22985E+02
  rms(prec ) = 0.23447E+02
  weight for this iteration     100.00

 eigenvalues of (default mixing * dielectric matrix)
  average eigenvalue GAMMA=   0.2582
  0.2582  0.2582

 Free energy of the ion-electron system (eV)
  ---------------------------------------------------
  alpha Z        PSCENC =       720.39869377
  Ewald energy   TEWEN  =     13704.34741074
  -Hartree energ DENC   =    -38794.20750081
  -exchange      EXHF   =         0.00000000
  -V(xc)+E(xc)   XCENC  =      2106.02034083
  PAW double counting   =     33048.53339089   -33154.43102883
  entropy T*S    EENTRO =        -0.10049817
  eigenvalues    EBANDS =     -7007.36018348
  atomic energy  EATOM  =     27815.60422923
  Solvation  Ediel_sol  =         0.00000000
  ---------------------------------------------------
  free energy    TOTEN  =     -1561.19514583 eV

  energy without entropy =    -1561.09464767  energy(sigma->0) =    -1561.14489675


--------------------------------------------------------------------------------------------------------




--------------------------------------- Iteration      1(  11)  ---------------------------------------


    POTLOK:  cpu time    0.2415: real time    0.2421
    SETDIJ:  cpu time    0.0605: real time    0.0605
     EDDAV:  cpu time   38.0626: real time   38.1057
       DOS:  cpu time    0.0056: real time    0.0077
    CHARGE:  cpu time    1.0195: real time    1.0204
    MIXING:  cpu time    0.0063: real time    0.0081
    --------------------------------------------
      LOOP:  cpu time   39.3960: real time   39.4446

 eigenvalue-minimisations  : 13376
 total energy-change (2. order) : 0.3618575E+03  (-0.3974345E+02)
 number of electron     600.0000011 magnetization       0.0044820
 augmentation part       50.8774568 magnetization      -0.1342342

 Broyden mixing:
  rms(total) = 0.96440E+01    rms(broyden)= 0.96439E+01
  rms(prec ) = 0.10146E+02
  weight for this iteration     100.00

 eigenvalues of (default mixing * dielectric matrix)
  average eigenvalue GAMMA=   0.3517
  0.4075  0.4075  0.2400

 Free energy of the ion-electron system (eV)
  ---------------------------------------------------
  alpha Z        PSCENC =       720.39869377
  Ewald energy   TEWEN  =     13704.34741074
  -Hartree energ DENC   =    -39006.15703684
  -exchange      EXHF   =         0.00000000
  -V(xc)+E(xc)   XCENC  =      2113.21840392
  PAW double counting   =     36873.60064073   -37019.54083021
  entropy T*S    EENTRO =        -0.05881316
  eigenvalues    EBANDS =     -6400.75035063
  atomic energy  EATOM  =     27815.60422923
  Solvation  Ediel_sol  =         0.00000000
  ---------------------------------------------------
  free energy    TOTEN  =     -1199.33765246 eV

  energy without entropy =    -1199.27883930  energy(sigma->0) =    -1199.30824588


--------------------------------------------------------------------------------------------------------




--------------------------------------- Iteration      1(  12)  ---------------------------------------


    POTLOK:  cpu time    0.2625: real time    0.2645
    SETDIJ:  cpu time    0.0602: real time    0.0602
     EDDAV:  cpu time   38.8589: real time   38.9080
       DOS:  cpu time    0.0051: real time    0.0051
    CHARGE:  cpu time    1.0243: real time    1.0253
    MIXING:  cpu time    0.0059: real time    0.0059
    --------------------------------------------
      LOOP:  cpu time   40.2169: real time   40.2690

 eigenvalue-minimisations  : 13664
 total energy-change (2. order) : 0.2242395E+02  (-0.5018970E+02)
 number of electron     600.0000052 magnetization      -0.0174188
 augmentation part       36.1034785 magnetization       0.2885160

 Broyden mixing:
  rms(total) = 0.50306E+01    rms(broyden)= 0.50301E+01
  rms(prec ) = 0.53392E+01
  weight for this iteration     100.00

 eigenvalues of (default mixing * dielectric matrix)
  average eigenvalue GAMMA=   0.3637
  0.5612  0.3382  0.3382  0.2171

 Free energy of the ion-electron system (eV)
  ---------------------------------------------------
  alpha Z        PSCENC =       720.39869377
  Ewald energy   TEWEN  =     13704.34741074
  -Hartree energ DENC   =    -39135.50192904
  -exchange      EXHF   =         0.00000000
  -V(xc)+E(xc)   XCENC  =      2117.59145964
  PAW double counting   =     39003.78115876   -39164.68341963
  entropy T*S    EENTRO =        -0.03586441
  eigenvalues    EBANDS =     -6238.41543908
  atomic energy  EATOM  =     27815.60422923
  Solvation  Ediel_sol  =         0.00000000
  ---------------------------------------------------
  free energy    TOTEN  =     -1176.91370003 eV

  energy without entropy =    -1176.87783562  energy(sigma->0) =    -1176.89576782


--------------------------------------------------------------------------------------------------------




--------------------------------------- Iteration      1(  13)  ---------------------------------------


    POTLOK:  cpu time    0.2418: real time    0.2431
    SETDIJ:  cpu time    0.0604: real time    0.0604
     EDDAV:  cpu time   34.5263: real time   34.5641
       DOS:  cpu time    0.0048: real time    0.0049
    CHARGE:  cpu time    1.0244: real time    1.0255
    MIXING:  cpu time    0.0060: real time    0.0060
    --------------------------------------------
      LOOP:  cpu time   35.8638: real time   35.9039

 eigenvalue-minimisations  : 12128
 total energy-change (2. order) : 0.2322578E+01  (-0.1570735E+02)
 number of electron     600.0000041 magnetization       0.0647572
 augmentation part       41.3500403 magnetization      -1.2735185

 Broyden mixing:
  rms(total) = 0.29720E+01    rms(broyden)= 0.29718E+01
  rms(prec ) = 0.31864E+01
  weight for this iteration     100.00

 eigenvalues of (default mixing * dielectric matrix)
  average eigenvalue GAMMA=   0.3975
  0.5464  0.5464  0.3402  0.3402  0.2142

 Free energy of the ion-electron system (eV)
  ---------------------------------------------------
  alpha Z        PSCENC =       720.39869377
  Ewald energy   TEWEN  =     13704.34741074
  -Hartree energ DENC   =    -39271.08654748
  -exchange      EXHF   =         0.00000000
  -V(xc)+E(xc)   XCENC  =      2124.91768517
  PAW double counting   =     43525.02086898   -43684.95651748
  entropy T*S    EENTRO =        -0.02965472
  eigenvalues    EBANDS =     -6108.80728975
  atomic energy  EATOM  =     27815.60422923
  Solvation  Ediel_sol  =         0.00000000
  ---------------------------------------------------
  free energy    TOTEN  =     -1174.59112157 eV

  energy without entropy =    -1174.56146684  energy(sigma->0) =    -1174.57629420


--------------------------------------------------------------------------------------------------------




--------------------------------------- Iteration      1(  14)  ---------------------------------------


    POTLOK:  cpu time    0.2426: real time    0.2441
    SETDIJ:  cpu time    0.0600: real time    0.0600
     EDDAV:  cpu time   37.8451: real time   37.8845
       DOS:  cpu time    0.0047: real time    0.0047
    CHARGE:  cpu time    1.0196: real time    1.0206
    MIXING:  cpu time    0.0062: real time    0.0062
    --------------------------------------------
      LOOP:  cpu time   39.1782: real time   39.2199

 eigenvalue-minimisations  : 13824
 total energy-change (2. order) :-0.3700563E+02  (-0.3685964E+02)
 number of electron     600.0000057 magnetization       0.1539454
 augmentation part       39.2668810 magnetization       0.5652302

 Broyden mixing:
  rms(total) = 0.75847E+01    rms(broyden)= 0.75846E+01
  rms(prec ) = 0.84751E+01
  weight for this iteration     100.00

 eigenvalues of (default mixing * dielectric matrix)
  average eigenvalue GAMMA=   0.4663
  1.2375  0.5008  0.3542  0.3542  0.2140  0.1369

 Free energy of the ion-electron system (eV)
  ---------------------------------------------------
  alpha Z        PSCENC =       720.39869377
  Ewald energy   TEWEN  =     13704.34741074
  -Hartree energ DENC   =    -39358.89209998
  -exchange      EXHF   =         0.00000000
  -V(xc)+E(xc)   XCENC  =      2129.96384881
  PAW double counting   =     45703.14163742   -45864.09599483
  entropy T*S    EENTRO =        -0.02085442
  eigenvalues    EBANDS =     -6062.04362390
  atomic energy  EATOM  =     27815.60422923
  Solvation  Ediel_sol  =         0.00000000
  ---------------------------------------------------
  free energy    TOTEN  =     -1211.59675318 eV

[...]
   80            fft3d_mpi                            46.239366                     7320   5
   81              fftbas_plan_mpi                      46.210764                   7320   6
   82                dfftw_execute                        23.584266                21960   7
   83                map_forward                          18.629468                14640   7
   84                  map_gather                            4.937127               7320   8
   85                  m_alltoallv_z                         3.834917               7320   8
   86                  map_scatter                           5.991429               7320   8
   87          pw_charge                             5.212745                       7320   4
   88          fft3d_mpi                             0.595980                        122   4
   89            fftbas_plan_mpi                       0.537334                      122   5
   90              dfftw_execute                         0.237886                    366   6
   91              map_backward                          0.230629                    244   6
   92                map_gather                            0.081218                  244   7
   93                m_alltoallv_z                         0.141514                  244   7
   94                map_scatter                           0.004889                  244   7
   95        depsum                                0.314872                           61   3
   96        fft3d_mpi                             0.592511                          122   3
   97          fftbas_plan_mpi                       0.571435                        122   4
   98            dfftw_execute                         0.127992                      366   5
   99            map_backward                          0.356502                      244   5
  100              map_gather                            0.038652                    122   6
  101              m_alltoallv_z                         0.293529                    122   6
  102              map_scatter                           0.021886                    122   6
  103      brmix                                 1.021783                             61   2
  104        brpre                                 0.006849                          122   3
  105        setg0                                 0.093333                           63   3
  106        broyd                                 0.750454                           61   3
  107          brsav                                 0.020998                       2445   4
  108          brget                                 0.078382                      10191   4
  109      force_and_stress                     25.435187                              1   2
  110        set_charge                            1.025005                            1   3
  111          soft_charge                           0.974480                          1   4
  112            fftwav_mpi                            0.840403                      120   5
  113              fft3d_mpi                             0.758972                    120   6
  114                fftbas_plan_mpi                       0.758547                  120   7
  115                  dfftw_execute                         0.385381                360   8
  116                  map_forward                           0.308241                240   8
  117                    map_gather                            0.081901              120   9
  118                    m_alltoallv_z                         0.064930              120   9
  119                    map_scatter                           0.098838              120   9
  120            pw_charge                             0.086147                      120   5
  121            fft3d_mpi                             0.009643                        2   5
  122              fftbas_plan_mpi                       0.008634                      2   6
  123                dfftw_execute                         0.003838                    6   7
  124                map_backward                          0.003779                    4   7
  125                  map_gather                            0.001348                  4   8
  126                  m_alltoallv_z                         0.002312                  4   8
  127                  map_scatter                           0.000072                  4   8
  128          depsum                                0.005266                          1   4
  129          fft3d_mpi                             0.008661                          2   4
  130            fftbas_plan_mpi                       0.008352                        2   5
  131              dfftw_execute                         0.002155                      6   6
  132              map_backward                          0.004728                      4   6
  133                map_gather                            0.000611                    2   7
  134                m_alltoallv_z                         0.003738                    2   7
  135                map_scatter                           0.000339                    2   7
  136        forloc                                0.119744                            1   3
  137        fornlr                                4.217515                            1   3
  138          rspher_all                            0.093078                          3   4
  139          phaser                                0.254764                         18   4
  140          rpro_isp                              3.696186                         18   4
  141            fftwav_mpi                            2.931739                      432   5
  142              fft3d_mpi                             2.637753                    432   6
  143                fftbas_plan_mpi                       2.636135                  432   7
  144                  dfftw_execute                         1.334613               1296   8
  145                  map_forward                           1.061331                864   8
  146                    map_gather                            0.280270              432   9
  147                    m_alltoallv_z                         0.225837              432   9
  148                    map_scatter                           0.342020              432   9
  149            rpromu                                0.756760                      108   5
  150              crrexp_mul_wave                       0.377961                  67392   6
  151              rpromu_gemm                           0.246014                  16848   6
  152        fordep                                0.251638                            1   3
  153          setdij_                               0.251161                          6   4
  154        setdij_                               0.603888                           20   3
  155        set_dd_paw                            0.030223                            1   3
  156        strkin                                0.020977                            1   3
  157        strelo                                0.004887                            1   3
  158        strnlr                               12.590524                            1   3
  159          rspher_all                            0.281344                          9   4
  160          phaser                                0.772365                         54   4
  161          rpro_isp                             11.029620                         54   4
  162            fftwav_mpi                            8.778557                     1296   5
  163              fft3d_mpi                             7.911297                   1296   6
  164                fftbas_plan_mpi                       7.906318                 1296   7
  165                  dfftw_execute                         4.014977               3888   8
  166                  map_forward                           3.176306               2592   8
  167                    map_gather                            0.836905             1296   9
  168                    m_alltoallv_z                         0.670267             1296   9
  169                    map_scatter                           1.021951             1296   9
  170            rpromu                                2.236345                      324   5
  171              crrexp_mul_wave                       1.121528                 202176   6
  172              rpromu_gemm                           0.723515                  50544   6
  173        fft3d_mpi                             0.089891                           22   3
  174          fftbas_plan_mpi                       0.086162                         22   4
  175            dfftw_execute                         0.023303                       66   5
  176            map_forward                           0.021211                       20   5
  177              map_gather                            0.001160                     10   6
  178              m_alltoallv_z                         0.016482                     10   6
  179              map_scatter                           0.003406                     10   6
  180            map_backward                          0.025626                       24   5
  181              map_gather                            0.003744                     12   6
  182              m_alltoallv_z                         0.019623                     12   6
  183              map_scatter                           0.002062                     12   6
  184        forhar                                0.214036                            2   3
  185        strehar                               0.005400                            1   3
  186        chggra                                0.016485                            1   3
  187          fft3d_mpi                             0.013188                          3   4
  188            fftbas_plan_mpi                       0.012631                        3   5
  189              dfftw_execute                         0.003186                      9   6
  190              map_forward                           0.005153                      4   6
  191                map_gather                            0.000298                    2   7
  192                m_alltoallv_z                         0.004197                    2   7
  193                map_scatter                           0.000623                    2   7
  194              map_backward                          0.002135                      2   6
  195                map_gather                            0.000332                    1   7
  196                m_alltoallv_z                         0.001615                    1   7
  197                map_scatter                           0.000166                    1   7
  198        brmix                                 0.024088                            1   3
  199          brpre                                 0.000079                          2   4
  200          setg0                                 0.001505                          1   4
  201          broyd                                 0.019569                          1   4
  202            brget                                 0.001917                      255   5
  203            brsav                                 0.000335                       46   5
 
 Flat profile
 ============
 
             routine name                   CPU           calls
 ---------------------------------------------------------------
 eddav                                 902.656536          69
 dfftw_execute                         332.193904      315456
 total_time                            309.087354           1
 redis_pw                              219.280826       95604
 orth1                                 155.447608      104004
 map_scatter                            91.083277      105402
 map_gather                             77.537656      105402
 redis_proj                             73.163777      120300
 m_alltoallv_z                          66.367873      105402
 fftwav_mpi                             66.342707       68616
 fftbas_plan_mpi                        58.473187      105154
 crrexp_mul_work_add                    49.438809     5400720
 racc0                                  48.118327       34620
 map_forward                            46.995835      139030
 vhamil                                 39.066815       34620
 rpro1                                  30.891104       24684
 lincom                                 25.866895         840
 crrexp_mul_wave                        23.803746     4142736
 phaser                                 12.862534         906
 w1_copy                                11.177591      103860
 eccp                                    8.824687        9936
 fftext_mpi                              8.266650       34620
 force_and_stress                        6.220885           1
 pw_charge                               5.298892        7440
 kinhamil                                4.968572       34620
 setdij_                                 2.777768          90
 apply_precond                           2.754628       24684
 soft_charge                             2.542428          62
 set_charge                              2.277682          62
 set_dd_paw                              1.941504          64
 overl                                   1.831595       59316
 setup_precond                           1.694244        9936
 overl1                                  1.463120       34620
 rpromu_gemm                             1.087648       73008
 fft3d_mpi                               0.812593      105152
 map_backward                            0.745386       71274
 broyd                                   0.668391          62
 rpromu                                  0.567461         468
 hamiltmu                                0.520771       34620
 strnlr                                  0.507195           1
 rspher_all                              0.429830          14
 depsum                                  0.320138          62
 choleski                                0.259684          12
 raccmu_                                 0.237103       34620
 forhar                                  0.214036           2
 brmix                                   0.174082          62
 orthch                                  0.173978           1
 fornlr                                  0.173486           1
 w1_projall                              0.152312       24684
 forloc                                  0.119744           1
 setg0                                   0.094838          64
 brget                                   0.080299       10446
 truncate_high_frequency_w1              0.031535       44556
 rpro_isp                                0.024057          78
 brsav                                   0.021332        2491
 strkin                                  0.020977           1
 brpre                                   0.006928         124
 strehar                                 0.005400           1
 strelo                                  0.004887           1
 chggra                                  0.003297           1
 fordep                                  0.000477           1
 brgrid                                  0.000397           1
 redis_pw_over_bands                     0.000000           1
 ---------------------------------------------------------------
  summed up times    2698.17727994919     
 
 Accumulative profile
 ====================
 
             routine name                   CPU           calls
 ---------------------------------------------------------------
 total_time                           2698.177280           1
 eddav                                2285.769130          69
 fft3d_mpi                             674.145356      105152
 fftbas_plan_mpi                       673.397118      105154
 fftwav_mpi                            524.753960       68616
 hamiltmu                              359.363432       34620
 dfftw_execute                         332.193904      315456
 kinhamil                              220.518487       34620
 redis_pw                              219.280826       95604
 fftext_mpi                            215.549915       34620
 map_forward                           201.905243      139030
 orth1                                 155.447608      104004
 raccmu_                                99.257359       34620
 racc0                                  97.557136       34620
 map_scatter                            91.083277      105402
 map_backward                           80.824784       71274
 map_gather                             77.537656      105402
 redis_proj                             73.163777      120300
 m_alltoallv_z                          66.367873      105402
 set_charge                             63.817094          62
 soft_charge                            60.618102          62
 w1_projall                             53.227978       24684
 rpro1                                  53.075666       24684
 crrexp_mul_work_add                    49.438809     5400720
 vhamil                                 39.066815       34620
 lincom                                 25.866895         840
 force_and_stress                       25.435187           1
 crrexp_mul_wave                        23.803746     4142736
 rpro_isp                               16.050930          78
 phaser                                 12.862534         906
 strnlr                                 12.590524           1
 w1_copy                                11.177591      103860
 eccp                                    8.824687        9936
 pw_charge                               5.298892        7440
 fornlr                                  4.217515           1
 rpromu                                  3.274294         468
 setdij_                                 2.777768          90
 apply_precond                           2.754628       24684
 set_dd_paw                              1.941504          64
 overl                                   1.831595       59316
 setup_precond                           1.694244        9936
 orthch                                  1.561291           1
 overl1                                  1.463120       34620
 rpromu_gemm                             1.087648       73008
 brmix                                   1.045871          62
 broyd                                   0.770023          62
 rspher_all                              0.429830          14
 depsum                                  0.320138          62
 choleski                                0.259684          12
 fordep                                  0.251638           1
 forhar                                  0.214036           2
 forloc                                  0.119744           1
 setg0                                   0.094838          64
 brget                                   0.080299       10446
 truncate_high_frequency_w1              0.031535       44556
 brsav                                   0.021332        2491
 strkin                                  0.020977           1
 chggra                                  0.016485           1
 brpre                                   0.006928         124
 strehar                                 0.005400           1
 strelo                                  0.004887           1
 brgrid                                  0.000397           1
 redis_pw_over_bands                     0.000000           1
 ---------------------------------------------------------------
 
Profiling took   6.640859  3.774215  0.012500  0.012137 seconds
Profiling took   7.798335 seconds
