       N       E                     dE             d eps       ncg     rms          rms(c)
RMM:   1     0.747175464708E+04    0.74718E+04   -0.23869E+05  2400   0.129E+03
RMM:   2     0.275579602474E+04   -0.47160E+04   -0.67251E+04  2400   0.290E+02
RMM:   3     0.632147089812E+03   -0.21236E+04   -0.27490E+04  2400   0.181E+02
RMM:   4    -0.562923548556E+03   -0.11951E+04   -0.11716E+04  2400   0.145E+02
RMM:   5    -0.101045713593E+04   -0.44753E+03   -0.39960E+03  2400   0.888E+01
RMM:   6    -0.116102204515E+04   -0.15056E+03   -0.13114E+03  2400   0.539E+01
RMM:   7    -0.121001830576E+04   -0.48996E+02   -0.45211E+02  2400   0.311E+01
RMM:   8    -0.122808392343E+04   -0.18066E+02   -0.16124E+02  2400   0.194E+01
RMM:   9    -0.123905377199E+04   -0.10970E+02   -0.10479E+02  5962   0.116E+01
RMM:  10    -0.123959244553E+04   -0.53867E+00   -0.54844E+00  6300   0.314E+00
RMM:  11    -0.123963479383E+04   -0.42348E-01   -0.36248E-01  6054   0.662E-01
RMM:  12    -0.123963603553E+04   -0.12417E-02   -0.13854E-02  6180   0.158E-01    0.577E+01
RMM:  13    -0.116791290923E+04    0.71723E+02   -0.15935E+02  4800   0.163E+01    0.321E+01
RMM:  14    -0.115293503396E+04    0.14978E+02   -0.43470E+01  4800   0.847E+00    0.149E+01
RMM:  15    -0.115135145984E+04    0.15836E+01   -0.10637E+01  4800   0.449E+00    0.501E+00
RMM:  16    -0.115114968256E+04    0.20178E+00   -0.81005E-01  4905   0.143E+00    0.143E+00
RMM:  17    -0.115113587242E+04    0.13810E-01   -0.17274E-01  4834   0.677E-01    0.502E-01
RMM:  18    -0.115113270369E+04    0.31687E-02   -0.55985E-02  4819   0.305E-01    0.287E-01
RMM:  19    -0.115113363023E+04   -0.92654E-03   -0.14409E-02  4839   0.165E-01    0.148E-01
RMM:  20    -0.115113902738E+04   -0.53972E-02   -0.11152E-02  4820   0.131E-01    0.915E-02
RMM:  21    -0.115114234675E+04   -0.33194E-02   -0.49646E-03  4831   0.809E-02    0.654E-02
RMM:  22    -0.115114621715E+04   -0.38704E-02   -0.15063E-03  4805   0.503E-02    0.304E-02
RMM:  23    -0.115114712149E+04   -0.90434E-03   -0.26980E-04  5038   0.209E-02    0.175E-02
RMM:  24    -0.115114801943E+04   -0.89795E-03   -0.80660E-05  4813   0.121E-02    0.117E-02
RMM:  25    -0.115114868024E+04   -0.66081E-03   -0.59806E-05  4754   0.902E-03    0.639E-03
RMM:  26    -0.115114894880E+04   -0.26856E-03   -0.23612E-05  4323   0.487E-03    0.356E-03
RMM:  27    -0.115114904436E+04   -0.95556E-04   -0.98709E-06  3973   0.297E-03    0.187E-03
RMM:  28    -0.115114907786E+04   -0.33509E-04   -0.26422E-06  3232   0.167E-03    0.880E-04
RMM:  29    -0.115114908968E+04   -0.11814E-04   -0.10392E-06  2984   0.111E-03    0.678E-04
RMM:  30    -0.115114909429E+04   -0.46147E-05   -0.53401E-07  2512   0.930E-04    0.617E-04
RMM:  31    -0.115114909586E+04   -0.15677E-05   -0.29406E-07  2331   0.684E-04    0.318E-04
RMM:  32    -0.115114909638E+04   -0.51582E-06   -0.12780E-07  2065   0.503E-04
   1 F= -.11619680E+04 E0= -.11619680E+04  d E =-.116197E+04
