 vasp.6.0.8 29Jun18 (build Mar 14 2019 11:44:20) complex                        
  
 executed on             LinuxIFC date 2021.01.08  16:17:32
 running   64 mpi-ranks, with    1 threads/rank
 distrk:  each k-point on   64 cores,    1 groups
 distr:  one band on NCORES_PER_BAND=   4 cores,   16 groups


--------------------------------------------------------------------------------------------------------


 INCAR:
 POTCAR:    PAW_PBE C 08Apr2002                   
 POTCAR:    PAW_PBE Zn 06Sep2000                  
 POTCAR:    PAW_PBE H 15Jun2001                   
 POTCAR:    PAW_PBE N 08Apr2002                   
 POTCAR:    PAW_PBE O 08Apr2002                   
 POTCAR:    PAW_PBE C 08Apr2002                   
   VRHFIN =C: s2p2                                                              
   LEXCH  = PE                                                                  
   EATOM  =   147.1560 eV,   10.8157 Ry                                         
                                                                                
   TITEL  = PAW_PBE C 08Apr2002                                                 
   LULTRA =        F    use ultrasoft PP ?                                      
   IUNSCR =        1    unscreen: 0-lin 1-nonlin 2-no                           
   RPACOR =    1.200    partial core radius                                     
   POMASS =   12.011; ZVAL   =    4.000    mass and valenz                      
   RCORE  =    1.500    outmost cutoff radius                                   
   RWIGS  =    1.630; RWIGS  =    0.863    wigner-seitz radius (au A)           
   ENMAX  =  400.000; ENMIN  =  300.000 eV                                      
   ICORE  =        2    local potential                                         
   LCOR   =        T    correct aug charges                                     
   LPAW   =        T    paw PP                                                  
   EAUG   =  644.873                                                            
   DEXC   =    0.000                                                            
   RMAX   =    1.529    core radius for proj-oper                               
   RAUG   =    1.300    factor for augmentation sphere                          
   RDEP   =    1.501    radius for radial grids                                 
   RDEPT  =    1.300    core radius for aug-charge                              
                                                                                
   Atomic configuration                                                         
    4 entries                                                                   
     n  l   j            E        occ.                                          
     1  0  0.50      -273.3789   2.0000                                         
     2  0  0.50       -13.7508   2.0000                                         
     2  1  0.50        -5.2854   2.0000                                         
     3  2  1.50        -5.4423   0.0000                                         
   Description                                                                  
     l       E           TYP  RCUT    TYP  RCUT                                 
     0    -13.7508458     23  1.200                                             
     0     -8.2022199     23  1.200                                             
     1     -5.2854383     23  1.500                                             
     1     34.0145650     23  1.500                                             
     2     -5.4423304      7  1.500                                             
  local pseudopotential read in
  partial core-charges read in
  partial kinetic energy density read in
  atomic valenz-charges read in
  non local Contribution for L=           0  read in
    real space projection operators read in
  non local Contribution for L=           0  read in
    real space projection operators read in
  non local Contribution for L=           1  read in
    real space projection operators read in
  non local Contribution for L=           1  read in
    real space projection operators read in
    PAW grid and wavefunctions read in
 
   number of l-projection  operators is LMAX  =           4
   number of lm-projection operators is LMMAX =           8
 
 POTCAR:    PAW_PBE Zn 06Sep2000                  
   VRHFIN =Zn: d10 p2                                                           
   LEXCH  = PE                                                                  
   EATOM  =  1748.8345 eV,  128.5357 Ry                                         
                                                                                
   TITEL  = PAW_PBE Zn 06Sep2000                                                
   LULTRA =        F    use ultrasoft PP ?                                      
   IUNSCR =        1    unscreen: 0-lin 1-nonlin 2-no                           
   RPACOR =    2.000    partial core radius                                     
   POMASS =   65.390; ZVAL   =   12.000    mass and valenz                      
   RCORE  =    2.300    outmost cutoff radius                                   
   RWIGS  =    2.400; RWIGS  =    1.270    wigner-seitz radius (au A)           
   ENMAX  =  276.723; ENMIN  =  207.542 eV                                      
   RCLOC  =    1.828    cutoff for local pot                                    
   LCOR   =        T    correct aug charges                                     
   LPAW   =        T    paw PP                                                  
   EAUG   =  575.892                                                            
   DEXC   =    0.000                                                            
   RMAX   =    2.347    core radius for proj-oper                               
   RAUG   =    1.300    factor for augmentation sphere                          
   RDEP   =    2.324    radius for radial grids                                 
   RDEPT  =    1.788    core radius for aug-charge                              
                                                                                
   Atomic configuration                                                         
    9 entries                                                                   
     n  l   j            E        occ.                                          
     1  0  0.50     -9524.6913   2.0000                                         
     2  0  0.50     -1158.1882   2.0000                                         
     2  1  1.50     -1003.8506   6.0000                                         
     3  0  0.50      -129.2194   2.0000                                         
     3  1  1.50       -83.3890   6.0000                                         
     3  2  2.50       -10.1410  10.0000                                         
     4  0  0.50        -5.9785   2.0000                                         
     4  1  0.50        -4.0817   0.0000                                         
     4  3  2.50        -1.3606   0.0000                                         
   Description                                                                  
     l       E           TYP  RCUT    TYP  RCUT                                 
     2    -10.1410010     23  2.300                                             
     2    -11.5015836     23  2.300                                             
     0     -5.9785163     23  2.300                                             
     0      1.1858015     23  2.300                                             
     1     -2.7211652     23  2.300                                             
     1     13.2444212     23  2.300                                             
  local pseudopotential read in
  partial core-charges read in
  partial kinetic energy density read in
  atomic valenz-charges read in
  non local Contribution for L=           2  read in
    real space projection operators read in
  non local Contribution for L=           2  read in
    real space projection operators read in
  non local Contribution for L=           0  read in
    real space projection operators read in
  non local Contribution for L=           0  read in
    real space projection operators read in
  non local Contribution for L=           1  read in
    real space projection operators read in
  non local Contribution for L=           1  read in
    real space projection operators read in
    PAW grid and wavefunctions read in
 
   number of l-projection  operators is LMAX  =           6
   number of lm-projection operators is LMMAX =          18
 
 POTCAR:    PAW_PBE H 15Jun2001                   
   VRHFIN =H: ultrasoft test                                                    
   LEXCH  = PE                                                                  
   EATOM  =    12.4884 eV,    0.9179 Ry                                         
                                                                                
   TITEL  = PAW_PBE H 15Jun2001                                                 
   LULTRA =        F    use ultrasoft PP ?                                      
   IUNSCR =        0    unscreen: 0-lin 1-nonlin 2-no                           
   RPACOR =    0.000    partial core radius                                     
   POMASS =    1.000; ZVAL   =    1.000    mass and valenz                      
   RCORE  =    1.100    outmost cutoff radius                                   
   RWIGS  =    0.700; RWIGS  =    0.370    wigner-seitz radius (au A)           
   ENMAX  =  250.000; ENMIN  =  200.000 eV                                      
   RCLOC  =    0.701    cutoff for local pot                                    
   LCOR   =        T    correct aug charges                                     
   LPAW   =        T    paw PP                                                  
   EAUG   =  400.000                                                            
   RMAX   =    1.123    core radius for proj-oper                               
   RAUG   =    1.200    factor for augmentation sphere                          
   RDEP   =    1.112    radius for radial grids                                 
   RDEPT  =    0.926    core radius for aug-charge                              
                                                                                
   Atomic configuration                                                         
    2 entries                                                                   
     n  l   j            E        occ.                                          
     1  0  0.50        -6.4927   1.0000                                         
     2  1  0.50        -3.4015   0.0000                                         
   Description                                                                  
     l       E           TYP  RCUT    TYP  RCUT                                 
     0     -6.4927494     23  1.100                                             
     0      6.8029130     23  1.100                                             
     1     -4.0817478     23  1.100                                             
  local pseudopotential read in
  atomic valenz-charges read in
  non local Contribution for L=           0  read in
    real space projection operators read in
  non local Contribution for L=           0  read in
    real space projection operators read in
  non local Contribution for L=           1  read in
    real space projection operators read in
    PAW grid and wavefunctions read in
 
   number of l-projection  operators is LMAX  =           3
   number of lm-projection operators is LMMAX =           5
 
 POTCAR:    PAW_PBE N 08Apr2002                   
   VRHFIN =N: s2p3                                                              
   LEXCH  = PE                                                                  
   EATOM  =   264.5486 eV,   19.4438 Ry                                         
                                                                                
   TITEL  = PAW_PBE N 08Apr2002                                                 
   LULTRA =        F    use ultrasoft PP ?                                      
   IUNSCR =        1    unscreen: 0-lin 1-nonlin 2-no                           
   RPACOR =    1.200    partial core radius                                     
   POMASS =   14.001; ZVAL   =    5.000    mass and valenz                      
   RCORE  =    1.500    outmost cutoff radius                                   
   RWIGS  =    1.400; RWIGS  =    0.741    wigner-seitz radius (au A)           
   ENMAX  =  400.000; ENMIN  =  300.000 eV                                      
   ICORE  =        2    local potential                                         
   LCOR   =        T    correct aug charges                                     
   LPAW   =        T    paw PP                                                  
   EAUG   =  627.112                                                            
   DEXC   =    0.000                                                            
   RMAX   =    1.529    core radius for proj-oper                               
   RAUG   =    1.300    factor for augmentation sphere                          
   RDEP   =    1.514    radius for radial grids                                 
   RDEPT  =    1.338    core radius for aug-charge                              
                                                                                
   Atomic configuration                                                         
    4 entries                                                                   
     n  l   j            E        occ.                                          
     1  0  0.50      -384.7179   2.0000                                         
     2  0  0.50       -18.5828   2.0000                                         
     2  1  0.50        -7.0898   3.0000                                         
     3  2  1.50        -6.8029   0.0000                                         
   Description                                                                  
     l       E           TYP  RCUT    TYP  RCUT                                 
     0    -18.5828119     23  1.200                                             
     0    -13.5018863     23  1.200                                             
     1     -7.0897853     23  1.500                                             
     1      9.5240782     23  1.500                                             
     2     -6.8029130      7  1.500                                             
  local pseudopotential read in
  partial core-charges read in
  partial kinetic energy density read in
  atomic valenz-charges read in
  non local Contribution for L=           0  read in
    real space projection operators read in
  non local Contribution for L=           0  read in
    real space projection operators read in
  non local Contribution for L=           1  read in
    real space projection operators read in
  non local Contribution for L=           1  read in
    real space projection operators read in
    PAW grid and wavefunctions read in
 
   number of l-projection  operators is LMAX  =           4
   number of lm-projection operators is LMMAX =           8
 
 POTCAR:    PAW_PBE O 08Apr2002                   
   VRHFIN =O: s2p4                                                              
   LEXCH  = PE                                                                  
   EATOM  =   432.3788 eV,   31.7789 Ry                                         
                                                                                
   TITEL  = PAW_PBE O 08Apr2002                                                 
   LULTRA =        F    use ultrasoft PP ?                                      
   IUNSCR =        1    unscreen: 0-lin 1-nonlin 2-no                           
   RPACOR =    1.200    partial core radius                                     
   POMASS =   16.000; ZVAL   =    6.000    mass and valenz                      
   RCORE  =    1.520    outmost cutoff radius                                   
   RWIGS  =    1.550; RWIGS  =    0.820    wigner-seitz radius (au A)           
   ENMAX  =  400.000; ENMIN  =  300.000 eV                                      
   ICORE  =        2    local potential                                         
   LCOR   =        T    correct aug charges                                     
   LPAW   =        T    paw PP                                                  
   EAUG   =  605.392                                                            
   DEXC   =    0.000                                                            
   RMAX   =    1.553    core radius for proj-oper                               
   RAUG   =    1.300    factor for augmentation sphere                          
   RDEP   =    1.550    radius for radial grids                                 
   RDEPT  =    1.329    core radius for aug-charge                              
                                                                                
   Atomic configuration                                                         
    4 entries                                                                   
     n  l   j            E        occ.                                          
     1  0  0.50      -514.6923   2.0000                                         
     2  0  0.50       -23.9615   2.0000                                         
     2  1  0.50        -9.0305   4.0000                                         
     3  2  1.50        -9.5241   0.0000                                         
   Description                                                                  
     l       E           TYP  RCUT    TYP  RCUT                                 
     0    -23.9615318     23  1.200                                             
     0     -9.5240782     23  1.200                                             
     1     -9.0304911     23  1.520                                             
     1      8.1634956     23  1.520                                             
     2     -9.5240782      7  1.500                                             
  local pseudopotential read in
  partial core-charges read in
  partial kinetic energy density read in
  kinetic energy density of atom read in
  atomic valenz-charges read in
  non local Contribution for L=           0  read in
    real space projection operators read in
  non local Contribution for L=           0  read in
    real space projection operators read in
  non local Contribution for L=           1  read in
    real space projection operators read in
  non local Contribution for L=           1  read in
    real space projection operators read in
    PAW grid and wavefunctions read in
 
   number of l-projection  operators is LMAX  =           4
   number of lm-projection operators is LMMAX =           8
 
 Optimization of the real space projectors (new method)

 maximal supplied QI-value         = 25.13
 optimisation between [QCUT,QGAM] = [ 12.32, 24.88] = [ 42.47,173.37] Ry 
 Optimized for a Real-space Cutoff    1.06 Angstroem

   l    n(q)    QCUT    max X(q) W(low)/X(q) W(high)/X(q)  e(spline) 
   0      8    12.315   115.676    0.34E-03    0.18E-03    0.23E-06
   0      8    12.315    87.132    0.34E-03    0.18E-03    0.22E-06
   1      7    12.315     4.429    0.45E-03    0.12E-03    0.18E-06
   1      7    12.315     2.733    0.35E-03    0.97E-04    0.15E-06
 Optimization of the real space projectors (new method)

 maximal supplied QI-value         = 16.25
 optimisation between [QCUT,QGAM] = [ 12.51, 25.03] = [ 43.85,175.40] Ry 
 Optimized for a Real-space Cutoff    1.31 Angstroem

   l    n(q)    QCUT    max X(q) W(low)/X(q) W(high)/X(q)  e(spline) 
   2      9    12.514    46.356    0.36E-03    0.54E-03    0.48E-06
   2      9    12.514    41.843    0.37E-03    0.56E-03    0.49E-06
   0     10    12.514    48.958    0.13E-03    0.28E-03    0.23E-06
   0     10    12.514    32.776    0.12E-03    0.26E-03    0.22E-06
   1      9    12.514    17.787    0.44E-03    0.44E-04    0.36E-06
   1      9    12.514    14.435    0.39E-03    0.39E-04    0.32E-06
 Optimization of the real space projectors (new method)

 maximal supplied QI-value         = 34.20
 optimisation between [QCUT,QGAM] = [ 12.31, 24.97] = [ 42.46,174.58] Ry 
 Optimized for a Real-space Cutoff    1.00 Angstroem

   l    n(q)    QCUT    max X(q) W(low)/X(q) W(high)/X(q)  e(spline) 
   0      7    12.313    19.460    0.14E-03    0.42E-03    0.16E-06
   0      7    12.313    12.209    0.12E-03    0.40E-03    0.16E-06
   1      7    12.313     4.655    0.33E-03    0.59E-03    0.89E-07
 Optimization of the real space projectors (new method)

 maximal supplied QI-value         = 25.13
 optimisation between [QCUT,QGAM] = [ 12.32, 24.88] = [ 42.47,173.37] Ry 
 Optimized for a Real-space Cutoff    1.20 Angstroem

   l    n(q)    QCUT    max X(q) W(low)/X(q) W(high)/X(q)  e(spline) 
   0      9    12.315    79.467    0.14E-03    0.22E-04    0.37E-06
   0      9    12.315    66.151    0.14E-03    0.23E-04    0.36E-06
   1      8    12.315    22.077    0.30E-03    0.54E-03    0.45E-06
   1      8    12.315    15.894    0.30E-03    0.55E-03    0.45E-06
 Optimization of the real space projectors (new method)

 maximal supplied QI-value         = 24.76
 optimisation between [QCUT,QGAM] = [ 12.38, 25.00] = [ 42.90,175.06] Ry 
 Optimized for a Real-space Cutoff    1.13 Angstroem

   l    n(q)    QCUT    max X(q) W(low)/X(q) W(high)/X(q)  e(spline) 
   0      8    12.378    20.381    0.16E-03    0.54E-05    0.27E-06
   0      8    12.378    15.268    0.17E-03    0.61E-05    0.29E-06
   1      8    12.378     5.964    0.38E-03    0.23E-03    0.28E-06
   1      8    12.378     5.382    0.33E-03    0.20E-03    0.25E-06
  PAW_PBE C 08Apr2002                   :
 energy of atom  1       EATOM= -147.1560
 kinetic energy error for atom=    0.0057 (will be added to EATOM!!)
  PAW_PBE Zn 06Sep2000                  :
 energy of atom  2       EATOM=-1748.8345
 kinetic energy error for atom=    0.0020 (will be added to EATOM!!)
  PAW_PBE H 15Jun2001                   :
 energy of atom  3       EATOM=  -12.4884
 kinetic energy error for atom=    0.0004 (will be added to EATOM!!)
  PAW_PBE N 08Apr2002                   :
 energy of atom  4       EATOM= -264.5486
 kinetic energy error for atom=    0.0103 (will be added to EATOM!!)
  PAW_PBE O 08Apr2002                   :
 energy of atom  5       EATOM= -432.3788
 kinetic energy error for atom=    0.0168 (will be added to EATOM!!)
 
 
 POSCAR: Zn_H
  positions in direct lattice
  velocities in cartesian coordinates
 exchange correlation table for  LEXCH =        8
   RHO(1)=    0.500       N(1)  =     2000
   RHO(2)=  100.500       N(2)  =     4000
 


--------------------------------------------------------------------------------------------------------


 ion  position               nearest neighbor table
   1  0.929  0.960  0.124- 107 1.08 117 1.34  65 1.40
   2  0.849  0.951  0.406- 112 1.09 118 1.35  65 1.40
   3  0.931  0.796  0.918- 116 1.08 119 1.34  66 1.40
   4  0.570  0.460  0.625- 110 1.08 120 1.34  67 1.40
   5  0.649  0.304  0.137- 111 1.09 121 1.35  68 1.40
   6  0.151  0.805  0.138- 115 1.09 122 1.35  69 1.40
   7  0.650  0.451  0.908- 101 1.09 123 1.35  67 1.40
   8  0.569  0.296  0.419- 113 1.08 124 1.34  68 1.40
   9  0.350  0.452  0.407- 114 1.09 125 1.35  70 1.40
  10  0.071  0.796  0.420- 104 1.08 126 1.34  69 1.40
  11  0.150  0.952  0.907- 105 1.09 127 1.35  71 1.40
  12  0.349  0.304  0.637- 102 1.09 128 1.35  72 1.40
  13  0.850  0.804  0.636- 108 1.09 129 1.35  66 1.40
  14  0.069  0.960  0.625- 109 1.08 130 1.34  71 1.40
  15  0.429  0.296  0.920- 106 1.08 131 1.34  72 1.40
  16  0.430  0.460  0.126- 103 1.08 132 1.34  70 1.40
  17  0.774  0.031  0.104- 141 1.23 133 1.42  33 1.48
  18  0.861  0.053  0.432- 142 1.23 133 1.42  34 1.48
  19  0.863  0.703  0.611- 143 1.23 134 1.42  35 1.48
  20  0.639  0.553  0.933- 144 1.23 135 1.42  36 1.48
  21  0.637  0.203  0.111- 145 1.23 136 1.42  37 1.48
  22  0.226  0.725  0.441- 146 1.23 137 1.42  38 1.48
  23  0.726  0.531  0.605- 147 1.23 135 1.42  39 1.48
  24  0.723  0.224  0.440- 148 1.23 136 1.42  40 1.48
  25  0.275  0.531  0.106- 149 1.23 138 1.42  41 1.48
  26  0.139  0.703  0.112- 150 1.23 137 1.42  42 1.48
  27  0.138  0.053  0.934- 151 1.23 139 1.42  43 1.48
  28  0.361  0.203  0.612- 152 1.23 140 1.42  44 1.48
  29  0.777  0.725  0.940- 153 1.23 134 1.42  45 1.48
  30  0.224  0.031  0.605- 154 1.23 139 1.42  46 1.48
  31  0.274  0.225  0.941- 155 1.23 140 1.42  47 1.48
  32  0.362  0.553  0.435- 156 1.23 138 1.42  48 1.48
  33  0.740  0.075  0.108-  49 1.39  73 1.42  17 1.48
  34  0.824  0.096  0.432-  50 1.39  73 1.42  18 1.48
  35  0.827  0.659  0.612-  51 1.39  74 1.42  19 1.48
  36  0.676  0.596  0.932-  52 1.39  75 1.42  20 1.48
  37  0.673  0.159  0.112-  53 1.39  76 1.42  21 1.48
  38  0.259  0.681  0.437-  54 1.39  77 1.42  22 1.48
  39  0.760  0.575  0.609-  55 1.39  75 1.42  23 1.48
  40  0.757  0.180  0.436-  56 1.39  76 1.42  24 1.48
  41  0.241  0.576  0.110-  57 1.39  78 1.42  25 1.48
  42  0.175  0.659  0.113-  58 1.39  77 1.42  26 1.48
  43  0.174  0.097  0.934-  59 1.39  79 1.42  27 1.48
  44  0.325  0.159  0.613-  60 1.39  80 1.42  28 1.48
  45  0.742  0.680  0.936-  61 1.39  74 1.42  29 1.48
  46  0.258  0.076  0.610-  62 1.39  79 1.42  30 1.48
  47  0.241  0.181  0.937-  63 1.39  80 1.42  31 1.48
  48  0.326  0.597  0.434-  64 1.39  78 1.42  32 1.48
  49  0.682  0.086  0.952-  88 1.09  33 1.39  53 1.40
  50  0.849  0.128  0.590-  99 1.09  34 1.39  56 1.40
  51  0.851  0.627  0.455-  93 1.09  35 1.39  55 1.40
  52  0.652  0.628  0.090-  90 1.09  36 1.39  61 1.40
  53  0.649  0.127  0.954-  98 1.09  37 1.39  49 1.40
  54  0.317  0.670  0.594-  96 1.09  38 1.39  64 1.41
  55  0.818  0.586  0.453-  86 1.09  39 1.39  51 1.40
  56  0.815  0.170  0.592-  87 1.09  40 1.39  50 1.40
  57  0.184  0.586  0.954-  95 1.09  41 1.39  58 1.40
  58  0.151  0.628  0.955-  91 1.09  42 1.39  57 1.40
  59  0.150  0.128  0.091-  92 1.09  43 1.39  63 1.40
  60  0.349  0.128  0.456-  85 1.09  44 1.39  62 1.40
  61  0.685  0.670  0.092-  89 1.09  45 1.39  52 1.40
  62  0.316  0.086  0.454- 100 1.09  46 1.39  60 1.40
  63  0.183  0.170  0.093-  94 1.09  47 1.39  59 1.40
  64  0.350  0.628  0.592-  97 1.09  48 1.39  54 1.41
  65  0.866  0.980  0.267-   1 1.40   2 1.40 133 1.42
  66  0.868  0.775  0.775-   3 1.40  13 1.40 134 1.42
  67  0.634  0.480  0.768-   4 1.40   7 1.40 135 1.42
  68  0.632  0.275  0.276-   8 1.40   5 1.40 136 1.42
  69  0.134  0.776  0.277-  10 1.40   6 1.40 137 1.42
  70  0.367  0.481  0.269-  16 1.40   9 1.40 138 1.42
  71  0.133  0.980  0.769-  14 1.40  11 1.40 139 1.42
  72  0.366  0.276  0.777-  15 1.40  12 1.40 140 1.42
  73  0.765  0.106  0.271-  33 1.42  34 1.42  76 1.43
  74  0.768  0.649  0.773-  45 1.42  35 1.42  75 1.43
  75  0.734  0.606  0.772-  39 1.42  36 1.42  74 1.43
  76  0.732  0.149  0.273-  40 1.42  37 1.42  73 1.43
  77  0.234  0.649  0.274-  38 1.42  42 1.42  78 1.43
  78  0.267  0.607  0.273-  41 1.42  48 1.42  77 1.43
  79  0.233  0.107  0.773-  46 1.42  43 1.42  80 1.43
  80  0.266  0.149  0.774-  47 1.42  44 1.42  79 1.43
  81  0.036  0.878  0.022- 127 1.98 122 1.98 119 2.01 117 2.01
  82  0.964  0.878  0.522- 118 1.98 129 1.98 126 2.01 130 2.02
  83  0.464  0.378  0.522- 125 1.98 128 1.98 124 2.01 120 2.02
  84  0.536  0.378  0.022- 123 1.98 121 1.98 131 2.01 132 2.01
  85  0.394  0.137  0.334-  60 1.09
  86  0.836  0.561  0.330-  55 1.09
  87  0.834  0.194  0.715-  56 1.09
  88  0.664  0.061  0.829-  49 1.09
  89  0.666  0.695  0.215-  61 1.09
  90  0.606  0.619  0.212-  52 1.09
  91  0.106  0.637  0.833-  58 1.09
  92  0.105  0.120  0.214-  59 1.09
  93  0.896  0.636  0.333-  51 1.09
  94  0.165  0.195  0.216-  63 1.09
  95  0.165  0.561  0.831-  57 1.09
  96  0.335  0.695  0.717-  54 1.09
  97  0.395  0.620  0.714-  64 1.09
  98  0.604  0.136  0.832-  53 1.09
  99  0.894  0.119  0.712-  50 1.09
 100  0.334  0.061  0.331-  62 1.09
 101  0.692  0.455  0.046-   7 1.09
 102  0.307  0.301  0.499-  12 1.09
 103  0.462  0.472  0.994-  16 1.08
 104  0.039  0.784  0.552-  10 1.08
 105  0.192  0.955  0.046-  11 1.09
 106  0.460  0.284  0.052-  15 1.08
 107  0.960  0.972  0.992-   1 1.08
 108  0.808  0.800  0.498-  13 1.09
 109  0.038  0.972  0.493-  14 1.08
 110  0.539  0.471  0.492-   4 1.08
 111  0.692  0.300  0.999-   5 1.09
 112  0.807  0.955  0.545-   2 1.09
 113  0.537  0.284  0.551-   8 1.08
 114  0.308  0.455  0.546-   9 1.09
 115  0.193  0.801  0.999-   6 1.09
 116  0.962  0.784  0.050-   3 1.08
 117  0.950  0.921  0.175-   1 1.34 118 1.37  81 2.01
 118  0.900  0.916  0.348-   2 1.35 117 1.37  82 1.98
 119  0.951  0.834  0.867-   3 1.34 129 1.37  81 2.01
 120  0.550  0.421  0.676-   4 1.34 123 1.37  83 2.02
 121  0.599  0.340  0.195-   5 1.35 124 1.37  84 1.98
 122  0.100  0.840  0.195-   6 1.35 126 1.37  81 1.98
 123  0.599  0.416  0.849-   7 1.35 120 1.37  84 1.98
 124  0.549  0.334  0.368-   8 1.34 121 1.37  83 2.01
 125  0.401  0.416  0.349-   9 1.35 132 1.37  83 1.98
 126  0.050  0.834  0.368-  10 1.34 122 1.37  82 2.01
 127  0.099  0.916  0.849-  11 1.35 130 1.37  81 1.98
 128  0.400  0.340  0.695-  12 1.35 131 1.37  83 1.98
 129  0.901  0.840  0.694-  13 1.35 119 1.37  82 1.98
 130  0.049  0.922  0.676-  14 1.34 127 1.37  82 2.02
 131  0.450  0.334  0.868-  15 1.34 128 1.37  84 2.01
 132  0.451  0.422  0.177-  16 1.34 125 1.37  84 2.01
 133  0.830  0.022  0.271-  18 1.42  17 1.42  65 1.42
 134  0.832  0.733  0.772-  19 1.42  29 1.42  66 1.42
 135  0.670  0.522  0.772-  20 1.42  23 1.42  67 1.42
 136  0.668  0.233  0.272-  21 1.42  24 1.42  68 1.42
 137  0.170  0.734  0.273-  26 1.42  22 1.42  69 1.42
 138  0.331  0.523  0.273-  32 1.42  25 1.42  70 1.42
 139  0.168  0.022  0.773-  27 1.42  30 1.42  71 1.42
 140  0.330  0.234  0.773-  28 1.42  31 1.42  72 1.42
 141  0.754  0.003  0.964-  17 1.23
 142  0.915  0.043  0.565-  18 1.23
 143  0.916  0.712  0.478-  19 1.23
 144  0.585  0.543  0.066-  20 1.23
 145  0.583  0.212  0.978-  21 1.23
 146  0.245  0.753  0.581-  22 1.23
 147  0.745  0.503  0.465-  23 1.23
 148  0.742  0.252  0.581-  24 1.23
 149  0.256  0.503  0.966-  25 1.23
 150  0.085  0.713  0.979-  26 1.23
 151  0.085  0.043  0.068-  27 1.23
 152  0.414  0.213  0.479-  28 1.23
 153  0.758  0.752  0.080-  29 1.23
 154  0.244  0.003  0.465-  30 1.23
 155  0.255  0.253  0.081-  31 1.23
 156  0.415  0.543  0.568-  32 1.23
 

IMPORTANT INFORMATION: All symmetrisations will be switched off!
NOSYMM: (Re-)initialisation of all symmetry stuff for point group C_1.


----------------------------------------------------------------------------------------

                                     Primitive cell                                     

  volume of cell :    2939.2759

  direct lattice vectors                    reciprocal lattice vectors
    14.107337822 -0.001027721 -0.010096247     0.070885129 -0.000002420  0.000045753
     0.002480735 31.698679075 -2.166574381     0.000003712  0.031681165  0.001962123
    -0.004274446 -0.408809769  6.600800786     0.000109641  0.010398674  0.152140866

  length of vectors
    14.107341472 31.772634543  6.613449532     0.070885144  0.031741867  0.152495861

  position of ions in fractional coordinates (direct lattice)
     0.929303106  0.959946230  0.123991181
     0.849403767  0.951360863  0.406159624
     0.930849122  0.795622092  0.918435688
     0.570430333  0.459905291  0.624714343
     0.649306338  0.304043485  0.137269623
     0.150551954  0.804508524  0.137608904
     0.650269871  0.451408894  0.907529488
     0.568907020  0.295601421  0.419012601
     0.350173263  0.451702575  0.407380631
     0.070501711  0.795991827  0.419678479
     0.149617314  0.951697181  0.907371888
     0.349216486  0.304429651  0.637330514
     0.850402275  0.803949037  0.636148667
     0.069244935  0.960267202  0.625308299
     0.429256030  0.295969669  0.919965514
     0.430417905  0.460284718  0.125638753
     0.773724918  0.030744878  0.103837541
     0.860859642  0.052696894  0.432376069
     0.862861804  0.702558024  0.611019748
     0.639138689  0.552712216  0.933181757
     0.636688973  0.202634762  0.111118156
     0.225575819  0.725094489  0.441265966
     0.725969182  0.530681389  0.604848933
     0.723326142  0.224495418  0.440330295
     0.275173192  0.531228695  0.105603109
     0.138891800  0.703188045  0.112143452
     0.137982389  0.053067819  0.934368157
     0.360775651  0.203135447  0.612050548
     0.776501558  0.724521222  0.939939174
     0.224403870  0.031187690  0.605431338
     0.274228701  0.225074077  0.940872159
     0.361947947  0.553084618  0.434610546
     0.739735697  0.075068267  0.108435200
     0.824325168  0.096477647  0.431872349
     0.826637469  0.658736430  0.612225305
     0.675638754  0.596498655  0.932436314
     0.673000285  0.158813787  0.111919141
     0.259309076  0.680727664  0.437067946
     0.759983977  0.574995125  0.609311769
     0.757463664  0.180193798  0.435539219
     0.241268260  0.575567778  0.110242670
     0.174987209  0.659354051  0.113283561
     0.174210392  0.096894460  0.933559029
     0.324693125  0.159302489  0.613204536
     0.742424571  0.680214677  0.935510238
     0.258374137  0.075515606  0.610132991
     0.240530243  0.180704418  0.936675235
     0.325681479  0.596914136  0.433902151
     0.682116369  0.085697134  0.952095692
     0.848602107  0.127878580  0.589805819
     0.850818520  0.627284641  0.454624183
     0.651506945  0.627937796  0.090151107
     0.648783417  0.127412542  0.953928612
     0.316660319  0.670038211  0.593732411
     0.817528716  0.585570454  0.453077681
     0.815201127  0.169583695  0.591737450
     0.183718976  0.586210361  0.953842095
     0.150613276  0.627951950  0.955446959
     0.150107132  0.128290773  0.091480207
     0.349001732  0.127879803  0.455563873
     0.684859641  0.669645393  0.091759857
     0.315867213  0.086141079  0.453923498
     0.183253715  0.170032080  0.093159485
     0.349829884  0.628291647  0.592028453
     0.865908716  0.980108232  0.267031982
     0.867527904  0.775265271  0.775423902
     0.633819419  0.480104080  0.768053185
     0.632172894  0.275295663  0.276110331
     0.134018869  0.775810208  0.276997528
     0.367095004  0.480502870  0.268717235
     0.132662320  0.980483465  0.768574360
     0.365779006  0.275753970  0.776897269
     0.765446225  0.106456428  0.271138156
     0.767985261  0.648787178  0.773045488
     0.734355655  0.606433668  0.771701035
     0.731795268  0.148815732  0.272764738
     0.233617779  0.649340330  0.274327700
     0.267039398  0.606949459  0.272915221
     0.232729387  0.106915690  0.772675498
     0.266145517  0.149304442  0.774089058
     0.036035182  0.877960144  0.021570668
     0.963720957  0.877902528  0.521522944
     0.463635666  0.377910140  0.521964993
     0.535904797  0.377952075  0.022368414
     0.394005396  0.136530896  0.333581263
     0.836001583  0.560716524  0.329979336
     0.833768241  0.194412387  0.714984083
     0.663610505  0.060877684  0.828760770
     0.666379609  0.694506188  0.214823583
     0.606432938  0.619332701  0.212115132
     0.105576229  0.636618531  0.833302047
     0.105215881  0.119634952  0.213618243
     0.895859300  0.635879435  0.332584081
     0.164811177  0.194852964  0.216440376
     0.165092797  0.561384745  0.830638095
     0.335158059  0.694839107  0.717189385
     0.394818426  0.619629914  0.714261220
     0.603664381  0.136045650  0.831858309
     0.893815197  0.119235837  0.711724411
     0.334451249  0.061313539  0.330809785
     0.692468678  0.454927591  0.046223197
     0.306843110  0.300899688  0.498889563
     0.461825242  0.471928459  0.993975000
     0.039304951  0.784389203  0.551652140
     0.192069674  0.955177537  0.045694409
     0.460469263  0.284397988  0.052169837
     0.960443977  0.971582731  0.992028711
     0.807949628  0.800331025  0.497805701
     0.037820301  0.971915094  0.493498525
     0.539353518  0.471495234  0.492416290
     0.691746103  0.300478129  0.999166103
     0.807169434  0.954834936  0.544556365
     0.537431162  0.284016627  0.550759354
     0.307803506  0.455188702  0.545570706
     0.192959912  0.801006272  0.999456141
     0.962368380  0.784081321  0.050409990
     0.949813015  0.921424564  0.175387831
     0.900257681  0.915854918  0.347990998
     0.950741637  0.834182580  0.866898539
     0.549861548  0.421412560  0.676274018
     0.598876504  0.339683704  0.195390706
     0.099577444  0.840004930  0.195295719
     0.599386363  0.415897232  0.849264561
     0.549029547  0.334194834  0.367742528
     0.400717452  0.416122320  0.348982954
     0.049948906  0.834471206  0.367852043
     0.099002002  0.916123810  0.848835402
     0.400137250  0.339949742  0.695289058
     0.900863766  0.839600153  0.694209703
     0.049141897  0.921679767  0.676313823
     0.449757623  0.334451450  0.868195002
     0.450501661  0.421689593  0.176677889
     0.830111966  0.022087562  0.270990150
     0.832162839  0.733218333  0.772062339
     0.669677690  0.522067967  0.771905613
     0.667524119  0.233243906  0.272449497
     0.169666484  0.733808532  0.273452818
     0.331451492  0.522516063  0.272806429
     0.168319393  0.022488841  0.772643928
     0.330127432  0.233757588  0.773292574
     0.754264132  0.002755411  0.964069531
     0.914739733  0.043145185  0.565315945
     0.916404247  0.712103842  0.477786631
     0.585433023  0.543188332  0.066188101
     0.582953867  0.212219916  0.978006381
     0.244850382  0.753079647  0.581174752
     0.745308036  0.502662750  0.465250023
     0.742231469  0.252404330  0.580854793
     0.255751321  0.503269771  0.965675860
     0.085330293  0.712762983  0.978696192
     0.084635717  0.043462555  0.067822971
     0.414188135  0.212714791  0.478660687
     0.757662459  0.752478505  0.080160863
     0.243611864  0.003233266  0.465470773
     0.254948586  0.253084753  0.080562705
     0.415450735  0.543470633  0.568070297

  ion indices of the primitive-cell ions
   primitive index   ion index
                 1           1
                 2           2
                 3           3
                 4           4
                 5           5
                 6           6
                 7           7
                 8           8
                 9           9
                10          10
                11          11
                12          12
                13          13
                14          14
                15          15
                16          16
                17          17
                18          18
                19          19
                20          20
                21          21
                22          22
                23          23
                24          24
                25          25
                26          26
                27          27
                28          28
                29          29
                30          30
                31          31
                32          32
                33          33
                34          34
                35          35
                36          36
                37          37
                38          38
                39          39
                40          40
                41          41
                42          42
                43          43
                44          44
                45          45
                46          46
                47          47
                48          48
                49          49
                50          50
                51          51
                52          52
                53          53
                54          54
                55          55
                56          56
                57          57
                58          58
                59          59
                60          60
                61          61
                62          62
                63          63
                64          64
                65          65
                66          66
                67          67
                68          68
                69          69
                70          70
                71          71
                72          72
                73          73
                74          74
                75          75
                76          76
                77          77
                78          78
                79          79
                80          80
                81          81
                82          82
                83          83
                84          84
                85          85
                86          86
                87          87
                88          88
                89          89
                90          90
                91          91
                92          92
                93          93
                94          94
                95          95
                96          96
                97          97
                98          98
                99          99
               100         100
               101         101
               102         102
               103         103
               104         104
               105         105
               106         106
               107         107
               108         108
               109         109
               110         110
               111         111
               112         112
               113         113
               114         114
               115         115
               116         116
               117         117
               118         118
               119         119
               120         120
               121         121
               122         122
               123         123
               124         124
               125         125
               126         126
               127         127
               128         128
               129         129
               130         130
               131         131
               132         132
               133         133
               134         134
               135         135
               136         136
               137         137
               138         138
               139         139
               140         140
               141         141
               142         142
               143         143
               144         144
               145         145
               146         146
               147         147
               148         148
               149         149
               150         150
               151         151
               152         152
               153         153
               154         154
               155         155
               156         156

----------------------------------------------------------------------------------------

 
 

Automatic generation of k-mesh.
 generate k-points for:    2    1    4
Space group operators:
 irot       det(A)        alpha          n_x          n_y          n_z        tau_x        tau_y        tau_z
    1     1.000000     0.000000     1.000000     0.000000     0.000000     0.000000     0.000000     0.000000
 
 Subroutine IBZKPT returns following result:
 ===========================================
 
 Found      6 irreducible k-points:
 
 Following reciprocal coordinates:
            Coordinates               Weight
  0.000000  0.000000  0.000000      1.000000
  0.500000  0.000000  0.000000      1.000000
  0.000000 -0.000000  0.250000      2.000000
  0.500000 -0.000000  0.250000      2.000000
  0.000000 -0.000000  0.500000      1.000000
  0.500000 -0.000000  0.500000      1.000000
 
 Following cartesian coordinates:
            Coordinates               Weight
  0.000000  0.000000  0.000000      1.000000
  0.035443 -0.000001  0.000023      1.000000
  0.000027  0.002600  0.038035      2.000000
  0.035470  0.002598  0.038058      2.000000
  0.000055  0.005199  0.076070      1.000000
  0.035497  0.005198  0.076093      1.000000
 


--------------------------------------------------------------------------------------------------------




 Dimension of arrays:
   k-points           NKPTS =      6   k-points in BZ     NKDIM =      6   number of bands    NBANDS=    400
   number of dos      NEDOS =    301   number of ions     NIONS =    156
   non local maximal  LDIM  =      6   non local SUM 2l+1 LMDIM =     18
   total plane-waves  NPLWV = 691200
   max r-space proj   IRMAX =   2247   max aug-charges    IRDMAX=   7208
   dimension x,y,z NGX =    90 NGY =  192 NGZ =   40
   dimension x,y,z NGXF=   180 NGYF=  384 NGZF=   80
   support grid    NGXF=   180 NGYF=  384 NGZF=   80
   ions per type =              80   4  32  24  16
   NGX,Y,Z   is equivalent  to a cutoff of  10.61, 10.05, 10.06 a.u.
   NGXF,Y,Z  is equivalent  to a cutoff of  21.21, 20.09, 20.11 a.u.

 SYSTEM =  flex_MOF                                
 POSCAR =  Zn_H                                    

 Startparameter for this run:
   NWRITE =      2    write-flag & timer
   PREC   = normal    normal or accurate (medium, high low for compatibility)
   ISTART =      0    job   : 0-new  1-cont  2-samecut
   ICHARG =      2    charge: 1-file 2-atom 10-const
   ISPIN  =      1    spin polarized calculation?
   LNONCOLLINEAR =      F non collinear calculations
   LSORBIT =      F    spin-orbit coupling
   INIWAV =      1    electr: 0-lowe 1-rand  2-diag
   LASPH  =      F    aspherical Exc in radial PAW
   METAGGA=      F    non-selfconsistent MetaGGA calc.

 Electronic Relaxation 1
   ENCUT  =  600.0 eV  44.10 Ry    6.64 a.u.  28.18 63.46 13.21*2*pi/ulx,y,z
   ENINI  =  600.0     initial cutoff
   ENAUG  =  644.9 eV  augmentation charge cutoff
   NELM   =     80;   NELMIN=  4; NELMDL=-12     # of ELM steps 
   EDIFF  = 0.1E-05   stopping-criterion for ELM
   LREAL  =      T    real-space projection
   NLSPLINE    = F    spline interpolate recip. space projectors
   LCOMPAT=      F    compatible to vasp.4.4
   GGA_COMPAT  = T    GGA compatible to vasp.4.4-vasp.4.6
   LMAXPAW     = -100 max onsite density
   LMAXMIX     =    2 max onsite mixed and CHGCAR
   VOSKOWN=      0    Vosko Wilk Nusair interpolation
   ROPT   =   -0.00050  -0.00050  -0.00050  -0.00050
   ROPT   =   -0.00050
 Ionic relaxation
   EDIFFG = -.1E-01   stopping-criterion for IOM
   NSW    =   1000    number of steps for IOM
   NBLOCK =      1;   KBLOCK =   1000    inner block; outer block 
   IBRION =      2    ionic relax: 0-MD 1-quasi-New 2-CG
   NFREE  =      1    steps in history (QN), initial steepest desc. (CG)
   ISIF   =      4    stress and relaxation
   IWAVPR =     11    prediction:  0-non 1-charg 2-wave 3-comb
   ISYM   =      0    0-nonsym 1-usesym 2-fastsym
   LCORR  =      T    Harris-Foulkes like correction to forces

   POTIM  = 0.5000    time-step for ionic-motion
   TEIN   =    0.0    initial temperature
   TEBEG  =    0.0;   TEEND  =   0.0 temperature during run
   SMASS  =  -3.00    Nose mass-parameter (am)
   estimated Nose-frequenzy (Omega)   =  0.10E-29 period in steps = 0.13E+47 mass=  -0.455E-26a.u.
   SCALEE = 1.0000    scale energy and forces
   NPACO  =    256;   APACO  = 16.0  distance and # of slots for P.C.
   PSTRESS=    0.0 pullay stress

  Mass of Ions in am
   POMASS =  12.01 65.39  1.00 14.00 16.00
  Ionic Valenz
   ZVAL   =   4.00 12.00  1.00  5.00  6.00
  Atomic Wigner-Seitz radii
   RWIGS  =  -1.00 -1.00 -1.00 -1.00 -1.00
  virtual crystal weights 
   VCA    =   1.00  1.00  1.00  1.00  1.00
   NELECT =     616.0000    total number of electrons
   NUPDOWN=      -1.0000    fix difference up-down

 DOS related values:
   EMIN   =  10.00;   EMAX   =-10.00  energy-range for DOS
   EFERMI =   0.00
   ISMEAR =     0;   SIGMA  =   0.05  broadening in eV -4-tet -1-fermi 0-gaus

 Electronic relaxation 2 (details)
   IALGO  =     48    algorithm
   LDIAG  =      T    sub-space diagonalisation (order eigenvalues)
   LSUBROT=      F    optimize rotation matrix (better conditioning)
   TURBO    =      0    0=normal 1=particle mesh
   IRESTART =      0    0=no restart 2=restart with 2 vectors
   NREBOOT  =      0    no. of reboots
   NMIN     =      0    reboot dimension
   EREF     =   0.00    reference energy to select bands
   IMIX   =      4    mixing-type and parameters
     AMIX     =   0.40;   BMIX     =  1.00
     AMIX_MAG =   1.60;   BMIX_MAG =  1.00
     AMIN     =   0.10
     WC   =   100.;   INIMIX=   1;  MIXPRE=   1;  MAXMIX= -45

 Intra band minimization:
   WEIMIN = 0.0010     energy-eigenvalue tresh-hold
   EBREAK =  0.63E-09  absolut break condition
   DEPER  =   0.30     relativ break condition  

   TIME   =   0.40     timestep for ELM

  volume/ion in A,a.u.               =      18.84       127.15
  Fermi-wavevector in a.u.,A,eV,Ry     =   0.972422  1.837612 12.865741  0.945605
  Thomas-Fermi vector in A             =   2.102720
 
 Write flags
   LWAVE        =      T    write WAVECAR
   LDOWNSAMPLE  =      F    k-point downsampling of WAVECAR
   LCHARG       =      T    write CHGCAR
   LVTOT        =      F    write LOCPOT, total local potential
   LVHAR        =      F    write LOCPOT, Hartree potential only
   LELF         =      F    write electronic localiz. function (ELF)
   LORBIT       =      0    0 simple, 1 ext, 2 COOP (PROOUT), +10 PAW based schemes


 Dipole corrections
   LMONO  =      F    monopole corrections only (constant potential shift)
   LDIPOL =      F    correct potential (dipole corrections)
   IDIPOL =      0    1-x, 2-y, 3-z, 4-all directions 
   EPSILON=  1.0000000 bulk dielectric constant

 Exchange correlation treatment:
   GGA     =    PE    GGA type
   LEXCH   =     8    internal setting for exchange type
   VOSKOWN=      0    Vosko Wilk Nusair interpolation
   LHFCALC =     F    Hartree Fock is set to
   LHFONE  =     F    Hartree Fock one center treatment
   AEXX    =    0.0000 exact exchange contribution

 Linear response parameters
   LEPSILON=     F    determine dielectric tensor
   LRPA    =     F    only Hartree local field effects (RPA)
   LNABLA  =     F    use nabla operator in PAW spheres
   LVEL    =     F    velocity operator in full k-point grid
   LINTERFAST=   F  fast interpolation
   KINTER  =     0    interpolate to denser k-point grid
   CSHIFT  =0.1000    complex shift for real part using Kramers Kronig
   OMEGAMAX=  -1.0    maximum frequency
   DEG_THRESHOLD= 0.2000000E-02 threshold for treating states as degnerate
   RTIME   =   -0.100 relaxation time in fs
  (WPLASMAI=    0.000 imaginary part of plasma frequency in eV, 0.658/RTIME)
   DFIELD  = 0.0000000 0.0000000 0.0000000 field for delta impulse in time
 
 Orbital magnetization related:
   ORBITALMAG=     F  switch on orbital magnetization
   LCHIMAG   =     F  perturbation theory with respect to B field
   DQ        =  0.001000  dq finite difference perturbation B field
   LLRAUG    =     F  two centre corrections for induced B field



--------------------------------------------------------------------------------------------------------


 conjugate gradient relaxation of ions
 charge density and potential will be updated during run
 non-spin polarized calculation
 RMM-DIIS sequential band-by-band
 perform sub-space diagonalisation
    before iterative eigenvector-optimisation
 modified Broyden-mixing scheme, WC =      100.0
 initial mixing is a Kerker type mixing with AMIX =  0.4000 and BMIX =      1.0000
 Hartree-type preconditioning will be used
 using additional bands           92
 real space projection scheme for non local part
 use partial core corrections
 calculate Harris-corrections to forces 
   (improved forces if not selfconsistent)
 use gradient corrections 
 use of overlap-Matrix (Vanderbilt PP)
 Gauss-broadening in eV      SIGMA  =   0.05


--------------------------------------------------------------------------------------------------------


  energy-cutoff  :      600.00
  volume of cell :     2939.28
      direct lattice vectors                 reciprocal lattice vectors
    14.107337822 -0.001027721 -0.010096247     0.070885129 -0.000002420  0.000045753
     0.002480735 31.698679075 -2.166574381     0.000003712  0.031681165  0.001962123
    -0.004274446 -0.408809769  6.600800786     0.000109641  0.010398674  0.152140866

  length of vectors
    14.107341472 31.772634543  6.613449532     0.070885144  0.031741867  0.152495861


 
 k-points in units of 2pi/SCALE and weight: read from INCAR                         
   0.00000000  0.00000000  0.00000000       0.125
   0.03544256 -0.00000121  0.00002288       0.125
   0.00002741  0.00259967  0.03803522       0.250
   0.03546997  0.00259846  0.03805809       0.250
   0.00005482  0.00519934  0.07607043       0.125
   0.03549738  0.00519813  0.07609331       0.125
 
 k-points in reciprocal lattice and weights: read from INCAR                         
   0.00000000  0.00000000  0.00000000       0.125
   0.50000000  0.00000000  0.00000000       0.125
   0.00000000 -0.00000000  0.25000000       0.250
   0.50000000 -0.00000000  0.25000000       0.250
   0.00000000 -0.00000000  0.50000000       0.125
   0.50000000 -0.00000000  0.50000000       0.125
 
 position of ions in fractional coordinates (direct lattice) 
   0.92930311  0.95994623  0.12399118
   0.84940377  0.95136086  0.40615962
   0.93084912  0.79562209  0.91843569
   0.57043033  0.45990529  0.62471434
   0.64930634  0.30404349  0.13726962
   0.15055195  0.80450852  0.13760890
   0.65026987  0.45140889  0.90752949
   0.56890702  0.29560142  0.41901260
   0.35017326  0.45170257  0.40738063
   0.07050171  0.79599183  0.41967848
   0.14961731  0.95169718  0.90737189
   0.34921649  0.30442965  0.63733051
   0.85040228  0.80394904  0.63614867
   0.06924493  0.96026720  0.62530830
   0.42925603  0.29596967  0.91996551
   0.43041790  0.46028472  0.12563875
   0.77372492  0.03074488  0.10383754
   0.86085964  0.05269689  0.43237607
   0.86286180  0.70255802  0.61101975
   0.63913869  0.55271222  0.93318176
   0.63668897  0.20263476  0.11111816
   0.22557582  0.72509449  0.44126597
   0.72596918  0.53068139  0.60484893
   0.72332614  0.22449542  0.44033030
   0.27517319  0.53122870  0.10560311
   0.13889180  0.70318805  0.11214345
   0.13798239  0.05306782  0.93436816
   0.36077565  0.20313545  0.61205055
   0.77650156  0.72452122  0.93993917
   0.22440387  0.03118769  0.60543134
   0.27422870  0.22507408  0.94087216
   0.36194795  0.55308462  0.43461055
   0.73973570  0.07506827  0.10843520
   0.82432517  0.09647765  0.43187235
   0.82663747  0.65873643  0.61222530
   0.67563875  0.59649866  0.93243631
   0.67300028  0.15881379  0.11191914
   0.25930908  0.68072766  0.43706795
   0.75998398  0.57499513  0.60931177
   0.75746366  0.18019380  0.43553922
   0.24126826  0.57556778  0.11024267
   0.17498721  0.65935405  0.11328356
   0.17421039  0.09689446  0.93355903
   0.32469313  0.15930249  0.61320454
   0.74242457  0.68021468  0.93551024
   0.25837414  0.07551561  0.61013299
   0.24053024  0.18070442  0.93667523
   0.32568148  0.59691414  0.43390215
   0.68211637  0.08569713  0.95209569
   0.84860211  0.12787858  0.58980582
   0.85081852  0.62728464  0.45462418
   0.65150694  0.62793780  0.09015111
   0.64878342  0.12741254  0.95392861
   0.31666032  0.67003821  0.59373241
   0.81752872  0.58557045  0.45307768
   0.81520113  0.16958370  0.59173745
   0.18371898  0.58621036  0.95384209
   0.15061328  0.62795195  0.95544696
   0.15010713  0.12829077  0.09148021
   0.34900173  0.12787980  0.45556387
   0.68485964  0.66964539  0.09175986
   0.31586721  0.08614108  0.45392350
   0.18325371  0.17003208  0.09315948
   0.34982988  0.62829165  0.59202845
   0.86590872  0.98010823  0.26703198
   0.86752790  0.77526527  0.77542390
   0.63381942  0.48010408  0.76805318
   0.63217289  0.27529566  0.27611033
   0.13401887  0.77581021  0.27699753
   0.36709500  0.48050287  0.26871723
   0.13266232  0.98048347  0.76857436
   0.36577901  0.27575397  0.77689727
   0.76544623  0.10645643  0.27113816
   0.76798526  0.64878718  0.77304549
   0.73435565  0.60643367  0.77170103
   0.73179527  0.14881573  0.27276474
   0.23361778  0.64934033  0.27432770
   0.26703940  0.60694946  0.27291522
   0.23272939  0.10691569  0.77267550
   0.26614552  0.14930444  0.77408906
   0.03603518  0.87796014  0.02157067
   0.96372096  0.87790253  0.52152294
   0.46363567  0.37791014  0.52196499
   0.53590480  0.37795208  0.02236841
   0.39400540  0.13653090  0.33358126
   0.83600158  0.56071652  0.32997934
   0.83376824  0.19441239  0.71498408
   0.66361050  0.06087768  0.82876077
   0.66637961  0.69450619  0.21482358
   0.60643294  0.61933270  0.21211513
   0.10557623  0.63661853  0.83330205
   0.10521588  0.11963495  0.21361824
   0.89585930  0.63587944  0.33258408
   0.16481118  0.19485296  0.21644038
   0.16509280  0.56138475  0.83063810
   0.33515806  0.69483911  0.71718939
   0.39481843  0.61962991  0.71426122
   0.60366438  0.13604565  0.83185831
   0.89381520  0.11923584  0.71172441
   0.33445125  0.06131354  0.33080979
   0.69246868  0.45492759  0.04622320
   0.30684311  0.30089969  0.49888956
   0.46182524  0.47192846  0.99397500
   0.03930495  0.78438920  0.55165214
   0.19206967  0.95517754  0.04569441
   0.46046926  0.28439799  0.05216984
   0.96044398  0.97158273  0.99202871
   0.80794963  0.80033102  0.49780570
   0.03782030  0.97191509  0.49349853
   0.53935352  0.47149523  0.49241629
   0.69174610  0.30047813  0.99916610
   0.80716943  0.95483494  0.54455637
   0.53743116  0.28401663  0.55075935
   0.30780351  0.45518870  0.54557071
   0.19295991  0.80100627  0.99945614
   0.96236838  0.78408132  0.05040999
   0.94981301  0.92142456  0.17538783
   0.90025768  0.91585492  0.34799100
   0.95074164  0.83418258  0.86689854
   0.54986155  0.42141256  0.67627402
   0.59887650  0.33968370  0.19539071
   0.09957744  0.84000493  0.19529572
   0.59938636  0.41589723  0.84926456
   0.54902955  0.33419483  0.36774253
   0.40071745  0.41612232  0.34898295
   0.04994891  0.83447121  0.36785204
   0.09900200  0.91612381  0.84883540
   0.40013725  0.33994974  0.69528906
   0.90086377  0.83960015  0.69420970
   0.04914190  0.92167977  0.67631382
   0.44975762  0.33445145  0.86819500
   0.45050166  0.42168959  0.17667789
   0.83011197  0.02208756  0.27099015
   0.83216284  0.73321833  0.77206234
   0.66967769  0.52206797  0.77190561
   0.66752412  0.23324391  0.27244950
   0.16966648  0.73380853  0.27345282
   0.33145149  0.52251606  0.27280643
   0.16831939  0.02248884  0.77264393
   0.33012743  0.23375759  0.77329257
   0.75426413  0.00275541  0.96406953
   0.91473973  0.04314519  0.56531594
   0.91640425  0.71210384  0.47778663
   0.58543302  0.54318833  0.06618810
   0.58295387  0.21221992  0.97800638
   0.24485038  0.75307965  0.58117475
   0.74530804  0.50266275  0.46525002
   0.74223147  0.25240433  0.58085479
   0.25575132  0.50326977  0.96567586
   0.08533029  0.71276298  0.97869619
   0.08463572  0.04346255  0.06782297
   0.41418814  0.21271479  0.47866069
   0.75766246  0.75247850  0.08016086
   0.24361186  0.00323327  0.46547077
   0.25494859  0.25308475  0.08056270
   0.41545073  0.54347063  0.56807030
 
 position of ions in cartesian coordinates  (Angst):
  13.11184423 30.37738360 -1.27073630
  11.98344985 29.98996770  0.61120890
  13.12985095 24.84374721  4.32923849
   8.04572400 14.32241466  3.12143670
   9.16015136  9.58099239  0.24080105
   2.12529485 25.44544691 -0.83621861
   9.17081739 13.93739046  5.00584512
   8.02470579  9.19829344  2.11963242
   4.93939174 14.15147389  1.70685573
   0.99477220 25.06024834  1.04492673
   2.10918439 29.79644726  3.92594777
   4.92454591  9.38911196  3.54379650
  11.99618738 25.22318476  2.44868936
   0.97657101 30.18349855  2.04634608
   6.05246170  9.00531550  5.42693491
   6.07265560 14.53861287 -0.17227030
  10.91483122  0.93132706  0.61098814
  12.14272034  1.49277764  2.73116511
  12.17181405 22.01948372  2.50236375
   9.01392770 17.13809647  4.95580184
   8.98201414  6.37717376  0.28801736
   3.18218689 22.80391185  1.33946012
  10.24022359 16.57388478  2.83539705
  10.20288099  6.93545352  2.41284366
   3.88282762 16.79579354 -0.45665962
   1.96065862 22.24414410 -0.78467490
   1.94270192  1.30005912  6.05120958
   5.08747173  6.18854233  3.59627320
  10.95214942 22.58131134  4.62678237
   3.16323069  0.74087171  3.92649556
   3.86517357  6.74963137  5.72010128
   5.10563630 17.35400678  1.66682435
  10.43542410  2.33447530  0.54564961
  11.62742694  2.88081316  2.63335475
  11.66067126 20.62994145  2.60562987
   9.52895825 18.52633600  4.85564623
   9.49415796  4.98774199  0.38787930
   3.65798121 21.39922360  1.40753328
  10.72017264 17.97671229  2.76850291
  10.68438112  5.53307424  2.47685681
   3.40460945 18.19942204 -0.52175640
   2.46975514 20.85416120 -0.68254409
   2.45389478  2.68959929  5.95054925
   4.57832968  4.79866076  3.69922211
  10.47132287 21.17869802  4.69388532
   3.64255059  2.14405109  3.86114754
   3.38968591  5.34492218  5.78886861
   4.59412474 18.74367150  1.56755462
   9.61898897  2.32655890  6.09203796
  11.96931273  3.81159155  3.60756456
  12.00239714 19.69736533  1.63323476
   9.19220097 19.86727446 -0.77198222
   9.14884540  3.64816719  6.01409370
   4.46635841 20.99627718  2.46422466
  11.53266976 18.37574714  1.71373960
  11.49820904  5.13283329  3.53029487
   2.58916274 18.19196532  5.02419843
   2.12222614 19.51449650  4.94468980
   2.11753926  4.02909578  0.32437560
   4.92185529  3.86702321  2.72650166
   9.66281531 21.18865825 -0.85206253
   4.45431890  2.54466544  2.80643846
   2.58524566  5.35151950  0.24468988
   4.93419638 19.67362873  2.54308933
  12.21695675 30.95808110 -0.36959490
  12.23711794 24.25699258  3.42999005
   8.93941267 14.90402613  4.02318567
   8.91777929  8.61298259  1.21971819
   1.89139003 24.47878178  0.14620189
   5.17877662 15.12107477  0.72899745
   1.87065925 30.76569366  2.94757649
   5.15753127  8.42305750  4.52700962
  10.79751361  3.26289755  1.55135505
  10.83253265 20.24887872  3.68931982
  10.35800911 18.90691259  3.77254691
  10.32288632  4.60500115  1.47065696
   3.29616317 20.47084281  0.40157971
   3.76755412 19.12765126  0.48376176
   3.28015456  3.07296967  4.86628654
   3.75166629  4.41602488  4.78344142
   0.51044627 27.82132151 -1.76014610
  13.59548573 27.61415639  1.53069797
   6.53937135 11.76539136  2.62193553
   7.56103200 11.97088636 -0.67662247
   5.55728005  4.19107286  1.90212114
  11.79373727 17.63821520  0.95485332
  11.75967636  5.86946651  4.28984067
   9.35838610  1.59025467  5.33188874
   9.40164689 21.92642195 -0.09341957
   8.55578405 19.54469054  0.05217667
   1.48741690 19.83919598  4.12011348
   1.48369965  3.70483260  1.14979116
  12.63834563 20.01965383  0.80859636
   2.32460517  6.08792926  1.00485239
   2.32686199 17.45541224  4.26492797
   4.72684609 21.73194339  3.22521981
   5.56832098 19.34904705  3.36823554
   8.51287912  3.97177521  5.19008322
  12.60660649  3.48774005  4.43059356
   4.71695483  1.80797619  2.04739245
   9.76982055 14.40099554 -0.68751568
   4.32735338  9.33385636  2.63805110
   6.51204674 14.55268745  5.53390015
   0.55407607 24.63854043  1.94151150
   2.71176600 30.25898848 -1.76978267
   6.49647797  8.99323978 -0.27645570
  13.54747750 30.39135109  4.43348076
  11.39787591 25.16509813  1.54378231
   0.53384539 30.60663878  1.15137727
   7.60790713 14.74391722  2.22336690
   9.75517049  9.11558001  5.93730414
  11.38705290 30.04355671  1.51763779
   7.58007333  8.77724378  3.01468359
   4.34108523 14.20552962  2.61189570
   2.71986563 24.98205500  4.85982305
  13.57818547 24.83274502 -1.37574051
  13.40086919 29.13526514 -0.84822427
  12.70102376 28.88820380  0.30366223
  13.41079733 26.08711219  3.90530703
   7.75523733 13.08118897  3.54537688
   8.44856064 10.68703160  0.54773871
   1.40602169 26.54710558 -0.53183039
   8.45314751 12.83558925  4.69870234
   7.74460244 10.44263381  1.69779407
   5.65259705 13.04744841  1.39796126
   0.70514383 26.30120212  0.61966982
   1.39529905 28.69280068  3.61714346
   5.64274271 10.49130560  3.84889828
  12.70790495 26.32949026  2.75418843
   0.69265692 28.93949695  2.46682890
   6.34200135 10.24628036  5.00162744
   6.35567002 13.29431243  0.24804530
  11.70956640  0.58851000  1.73251664
  11.73812108 22.92557076  3.49925592
   9.44536505 16.23261415  3.95733486
   9.41640229  7.28145767  1.28630509
   2.39419394 23.14879659  0.21344381
   4.67602829 16.45120242  0.66532456
   2.37129170  0.39682917  5.04964551
   4.65449370  7.09333793  4.59456398
  10.63654488 -0.30755331  6.35004588
  12.90223305  1.13559860  3.62882524
  12.92774857 22.37648550  1.60169619
   8.25996602 17.19069261 -0.74587413
   8.22027316  6.32667335  5.98994941
   3.45357104 23.63378849  2.20214362
  10.51357054 15.74278048  1.97444167
  10.46905340  7.76266192  3.27976027
   3.60509103 15.55794638  5.28128045
   1.20136806 22.19345680  4.91506306
   1.19380256  1.34989190  0.35266656
   5.84157363  6.54667105  2.69449968
  10.69012432 23.81902543 -1.10882431
   3.43473326 -0.08804910  3.06301516
   3.59692931  7.98925552 -0.01912260
   5.85982389 16.99464151  2.56805482
 


--------------------------------------------------------------------------------------------------------


 k-point  1 :   0.0000 0.0000 0.0000  plane waves:   98063
 k-point  2 :   0.5000 0.0000 0.0000  plane waves:   98104
 k-point  3 :   0.0000-0.0000 0.2500  plane waves:   98059
 k-point  4 :   0.5000-0.0000 0.2500  plane waves:   98073
 k-point  5 :   0.0000-0.0000 0.5000  plane waves:   98150
 k-point  6 :   0.5000-0.0000 0.5000  plane waves:   98132

 maximum and minimum number of plane-waves per node :     24561    24480

 maximum number of plane-waves:     98150
 maximum index in each direction: 
   IXMAX=   28   IYMAX=   63   IZMAX=   13
   IXMIN=  -28   IYMIN=  -63   IZMIN=  -13


 real space projection operators:
  total allocation   :      11949.81 KBytes
  max/ min on nodes  :       3034.27       2942.52


 parallel 3D FFT for wavefunctions:
    minimum data exchange during FFTs selected (reduces bandwidth)
 parallel 3D FFT for charge:
    minimum data exchange during FFTs selected (reduces bandwidth)


 total amount of memory used by VASP MPI-rank0   119701. kBytes
=======================================================================

   base      :      30000. kBytes
   nonlr-proj:       6102. kBytes
   fftplans  :       8625. kBytes
   grid      :      14656. kBytes
   one-center:        606. kBytes
   wavefun   :      59712. kBytes
 
     INWAV:  cpu time    0.0003: real time    0.0002
 Broyden mixing: mesh for mixing (old mesh)
   NGX = 57   NGY =127   NGZ = 27
  (NGX  =180   NGY  =384   NGZ  = 80)
  gives a total of 195453 points

 initial charge density was supplied:
 charge density of overlapping atoms calculated
 number of electron     616.0000000 magnetization 
 keeping initial charge density in first step


--------------------------------------------------------------------------------------------------------


 Maximum index for non-local projection operator          633
 Maximum index for augmentation-charges          302 (set IRDMAX)


--------------------------------------------------------------------------------------------------------


 First call to EWALD:  gamma=   0.124
 Maximum number of real-space cells 3x 2x 5
 Maximum number of reciprocal cells 3x 5x 2

    FEWALD:  cpu time    0.0164: real time    0.0167


--------------------------------------- Iteration      1(   1)  ---------------------------------------


    POTLOK:  cpu time    0.1385: real time    0.1982
    SETDIJ:  cpu time    0.0308: real time    0.0310
    EDDIAG:  cpu time    4.4198: real time    4.5006
  RMM-DIIS:  cpu time    5.6493: real time    5.6499
    ORTHCH:  cpu time    1.0753: real time    1.0758
       DOS:  cpu time    0.0043: real time    0.0051
    --------------------------------------------
      LOOP:  cpu time   11.3182: real time   11.4606

 eigenvalue-minimisations  :  2400
 total energy-change (2. order) : 0.7471755E+04  (-0.2386861E+05)
 number of electron     616.0000000 magnetization 
 augmentation part      616.0000000 magnetization 

 Free energy of the ion-electron system (eV)
  ---------------------------------------------------
  alpha Z        PSCENC =       657.27229425
  Ewald energy   TEWEN  =     17232.68763414
  -Hartree energ DENC   =    -45040.82111636
  -exchange      EXHF   =         0.00000000
  -V(xc)+E(xc)   XCENC  =      2271.93969362
  PAW double counting   =     25034.14638475   -25847.60581054
  entropy T*S    EENTRO =        -0.05910308
  eigenvalues    EBANDS =       730.51475496
  atomic energy  EATOM  =     32433.67991533
  Solvation  Ediel_sol  =         0.00000000
  ---------------------------------------------------
  free energy    TOTEN  =      7471.75464708 eV

  energy without entropy =     7471.81375016  energy(sigma->0) =     7471.78419862


--------------------------------------------------------------------------------------------------------




--------------------------------------- Iteration      1(   2)  ---------------------------------------


    EDDIAG:  cpu time    4.2665: real time    4.2668
  RMM-DIIS:  cpu time    5.5655: real time    5.5656
    ORTHCH:  cpu time    1.0644: real time    1.0644
       DOS:  cpu time    0.0036: real time    0.0035
    --------------------------------------------
      LOOP:  cpu time   10.9000: real time   10.9004

 eigenvalue-minimisations  :  2400
 total energy-change (2. order) :-0.4715959E+04  (-0.6725084E+04)
 number of electron     616.0000000 magnetization 
 augmentation part      616.0000000 magnetization 

 Free energy of the ion-electron system (eV)
  ---------------------------------------------------
  alpha Z        PSCENC =       657.27229425
  Ewald energy   TEWEN  =     17232.68763414
  -Hartree energ DENC   =    -45040.82111636
  -exchange      EXHF   =         0.00000000
  -V(xc)+E(xc)   XCENC  =      2271.93969362
  PAW double counting   =     25034.14638475   -25847.60581054
  entropy T*S    EENTRO =        -0.05262641
  eigenvalues    EBANDS =     -3985.45034405
  atomic energy  EATOM  =     32433.67991533
  Solvation  Ediel_sol  =         0.00000000
  ---------------------------------------------------
  free energy    TOTEN  =      2755.79602474 eV

  energy without entropy =     2755.84865115  energy(sigma->0) =     2755.82233794


--------------------------------------------------------------------------------------------------------




--------------------------------------- Iteration      1(   3)  ---------------------------------------


    EDDIAG:  cpu time    4.2605: real time    4.2609
  RMM-DIIS:  cpu time    5.5672: real time    5.5671
    ORTHCH:  cpu time    1.0641: real time    1.0641
       DOS:  cpu time    0.0032: real time    0.0032
    --------------------------------------------
      LOOP:  cpu time   10.8950: real time   10.8953

 eigenvalue-minimisations  :  2400
 total energy-change (2. order) :-0.2123649E+04  (-0.2748990E+04)
 number of electron     616.0000000 magnetization 
 augmentation part      616.0000000 magnetization 

 Free energy of the ion-electron system (eV)
  ---------------------------------------------------
  alpha Z        PSCENC =       657.27229425
  Ewald energy   TEWEN  =     17232.68763414
  -Hartree energ DENC   =    -45040.82111636
  -exchange      EXHF   =         0.00000000
  -V(xc)+E(xc)   XCENC  =      2271.93969362
  PAW double counting   =     25034.14638475   -25847.60581054
  entropy T*S    EENTRO =        -0.04752500
  eigenvalues    EBANDS =     -6109.10438039
  atomic energy  EATOM  =     32433.67991533
  Solvation  Ediel_sol  =         0.00000000
  ---------------------------------------------------
  free energy    TOTEN  =       632.14708981 eV

  energy without entropy =      632.19461481  energy(sigma->0) =      632.17085231


--------------------------------------------------------------------------------------------------------




--------------------------------------- Iteration      1(   4)  ---------------------------------------


    EDDIAG:  cpu time    4.2575: real time    4.2581
  RMM-DIIS:  cpu time    5.5615: real time    5.5617
    ORTHCH:  cpu time    1.0675: real time    1.0675
       DOS:  cpu time    0.0027: real time    0.0027
    --------------------------------------------
      LOOP:  cpu time   10.8893: real time   10.8900

 eigenvalue-minimisations  :  2400
 total energy-change (2. order) :-0.1195071E+04  (-0.1171625E+04)
 number of electron     616.0000000 magnetization 
 augmentation part      616.0000000 magnetization 

 Free energy of the ion-electron system (eV)
  ---------------------------------------------------
  alpha Z        PSCENC =       657.27229425
  Ewald energy   TEWEN  =     17232.68763414
  -Hartree energ DENC   =    -45040.82111636
  -exchange      EXHF   =         0.00000000
  -V(xc)+E(xc)   XCENC  =      2271.93969362
  PAW double counting   =     25034.14638475   -25847.60581054
  entropy T*S    EENTRO =        -0.01699702
  eigenvalues    EBANDS =     -7304.20554674
  atomic energy  EATOM  =     32433.67991533
  Solvation  Ediel_sol  =         0.00000000
  ---------------------------------------------------
  free energy    TOTEN  =      -562.92354856 eV

  energy without entropy =     -562.90655154  energy(sigma->0) =     -562.91505005


--------------------------------------------------------------------------------------------------------




--------------------------------------- Iteration      1(   5)  ---------------------------------------


    EDDIAG:  cpu time    4.2797: real time    4.2799
  RMM-DIIS:  cpu time    5.5784: real time    5.5785
    ORTHCH:  cpu time    1.0632: real time    1.0631
       DOS:  cpu time    0.0036: real time    0.0036
    --------------------------------------------
      LOOP:  cpu time   10.9248: real time   10.9251

 eigenvalue-minimisations  :  2400
 total energy-change (2. order) :-0.4475336E+03  (-0.3995957E+03)
 number of electron     616.0000000 magnetization 
 augmentation part      616.0000000 magnetization 

 Free energy of the ion-electron system (eV)
  ---------------------------------------------------
  alpha Z        PSCENC =       657.27229425
  Ewald energy   TEWEN  =     17232.68763414
  -Hartree energ DENC   =    -45040.82111636
  -exchange      EXHF   =         0.00000000
  -V(xc)+E(xc)   XCENC  =      2271.93969362
  PAW double counting   =     25034.14638475   -25847.60581054
  entropy T*S    EENTRO =        -0.01138826
  eigenvalues    EBANDS =     -7751.74474287
  atomic energy  EATOM  =     32433.67991533
  Solvation  Ediel_sol  =         0.00000000
  ---------------------------------------------------
  free energy    TOTEN  =     -1010.45713593 eV

  energy without entropy =    -1010.44574767  energy(sigma->0) =    -1010.45144180


--------------------------------------------------------------------------------------------------------




--------------------------------------- Iteration      1(   6)  ---------------------------------------


    EDDIAG:  cpu time    4.2528: real time    4.2533
  RMM-DIIS:  cpu time    5.5715: real time    5.5720
    ORTHCH:  cpu time    1.0649: real time    1.0648
       DOS:  cpu time    0.0013: real time    0.0013
    --------------------------------------------
      LOOP:  cpu time   10.8904: real time   10.8914

 eigenvalue-minimisations  :  2400
 total energy-change (2. order) :-0.1505649E+03  (-0.1311430E+03)
 number of electron     616.0000000 magnetization 
 augmentation part      616.0000000 magnetization 

 Free energy of the ion-electron system (eV)
  ---------------------------------------------------
  alpha Z        PSCENC =       657.27229425
  Ewald energy   TEWEN  =     17232.68763414
  -Hartree energ DENC   =    -45040.82111636
  -exchange      EXHF   =         0.00000000
  -V(xc)+E(xc)   XCENC  =      2271.93969362
  PAW double counting   =     25034.14638475   -25847.60581054
  entropy T*S    EENTRO =        -0.00000000
  eigenvalues    EBANDS =     -7902.32104035
  atomic energy  EATOM  =     32433.67991533
  Solvation  Ediel_sol  =         0.00000000
  ---------------------------------------------------
  free energy    TOTEN  =     -1161.02204515 eV

  energy without entropy =    -1161.02204515  energy(sigma->0) =    -1161.02204515


--------------------------------------------------------------------------------------------------------




--------------------------------------- Iteration      1(   7)  ---------------------------------------


    EDDIAG:  cpu time    4.2620: real time    4.2626
  RMM-DIIS:  cpu time    5.5696: real time    5.5700
    ORTHCH:  cpu time    1.0642: real time    1.0643
       DOS:  cpu time    0.0013: real time    0.0013
    --------------------------------------------
      LOOP:  cpu time   10.8971: real time   10.8982

 eigenvalue-minimisations  :  2400
 total energy-change (2. order) :-0.4899626E+02  (-0.4521086E+02)
 number of electron     616.0000000 magnetization 
 augmentation part      616.0000000 magnetization 

 Free energy of the ion-electron system (eV)
  ---------------------------------------------------
  alpha Z        PSCENC =       657.27229425
  Ewald energy   TEWEN  =     17232.68763414
  -Hartree energ DENC   =    -45040.82111636
  -exchange      EXHF   =         0.00000000
  -V(xc)+E(xc)   XCENC  =      2271.93969362
  PAW double counting   =     25034.14638475   -25847.60581054
  entropy T*S    EENTRO =        -0.00000000
  eigenvalues    EBANDS =     -7951.31730096
  atomic energy  EATOM  =     32433.67991533
  Solvation  Ediel_sol  =         0.00000000
  ---------------------------------------------------
  free energy    TOTEN  =     -1210.01830576 eV

  energy without entropy =    -1210.01830576  energy(sigma->0) =    -1210.01830576


--------------------------------------------------------------------------------------------------------




--------------------------------------- Iteration      1(   8)  ---------------------------------------


    EDDIAG:  cpu time    4.2550: real time    4.2556
  RMM-DIIS:  cpu time    5.5668: real time    5.5673
    ORTHCH:  cpu time    1.0620: real time    1.0620
       DOS:  cpu time    0.0032: real time    0.0032
    --------------------------------------------
      LOOP:  cpu time   10.8870: real time   10.8882

 eigenvalue-minimisations  :  2400
 total energy-change (2. order) :-0.1806562E+02  (-0.1612395E+02)
 number of electron     616.0000000 magnetization 
 augmentation part      616.0000000 magnetization 

 Free energy of the ion-electron system (eV)
  ---------------------------------------------------
  alpha Z        PSCENC =       657.27229425
  Ewald energy   TEWEN  =     17232.68763414
  -Hartree energ DENC   =    -45040.82111636
  -exchange      EXHF   =         0.00000000
  -V(xc)+E(xc)   XCENC  =      2271.93969362
  PAW double counting   =     25034.14638475   -25847.60581054
  entropy T*S    EENTRO =        -0.00000000
  eigenvalues    EBANDS =     -7969.38291862
  atomic energy  EATOM  =     32433.67991533
  Solvation  Ediel_sol  =         0.00000000
  ---------------------------------------------------
  free energy    TOTEN  =     -1228.08392343 eV

  energy without entropy =    -1228.08392343  energy(sigma->0) =    -1228.08392343


--------------------------------------------------------------------------------------------------------




--------------------------------------- Iteration      1(   9)  ---------------------------------------


[...]
   -.957E+02 0.238E+02 -.732E+02   0.805E+02 -.946E+01 0.850E+02   0.153E+02 -.144E+02 -.118E+02   -.105E-04 -.401E-04 -.898E-06
   0.366E+03 0.655E+02 -.455E+02   -.369E+03 -.863E+02 0.575E+02   0.344E+01 0.208E+02 -.121E+02   0.164E-04 0.295E-04 -.989E-05
   -.966E+02 0.228E+02 -.728E+02   0.812E+02 -.851E+01 0.846E+02   0.154E+02 -.143E+02 -.118E+02   -.939E-05 -.398E-04 -.715E-06
   -.366E+03 0.656E+02 -.459E+02   0.369E+03 -.864E+02 0.579E+02   -.343E+01 0.208E+02 -.121E+02   -.167E-04 0.295E-04 -.103E-04
   0.366E+03 -.679E+02 0.465E+02   -.369E+03 0.885E+02 -.586E+02   0.331E+01 -.207E+02 0.122E+02   0.168E-04 -.315E-04 0.998E-05
   0.366E+03 -.656E+02 0.468E+02   -.370E+03 0.863E+02 -.589E+02   0.346E+01 -.207E+02 0.122E+02   0.172E-04 -.310E-04 0.103E-04
   -.943E+02 -.247E+02 0.732E+02   0.790E+02 0.104E+02 -.850E+02   0.154E+02 0.143E+02 0.119E+02   -.923E-05 0.375E-04 0.114E-05
   0.966E+02 0.225E+02 -.726E+02   -.813E+02 -.827E+01 0.844E+02   -.154E+02 -.143E+02 -.118E+02   0.912E-05 -.404E-04 -.113E-05
   0.949E+02 -.248E+02 0.735E+02   -.795E+02 0.106E+02 -.853E+02   -.154E+02 0.143E+02 0.119E+02   0.986E-05 0.385E-04 0.883E-06
   0.180E+03 0.186E+02 -.124E+02   -.181E+03 -.185E+02 0.132E+02   0.166E+01 -.122E+00 -.790E+00   0.332E-04 0.547E-04 -.970E-05
   0.180E+03 -.181E+02 0.134E+02   -.182E+03 0.180E+02 -.142E+02   0.172E+01 0.102E+00 0.834E+00   0.361E-04 -.542E-04 0.102E-04
   -.179E+03 0.187E+02 -.127E+02   0.181E+03 -.186E+02 0.134E+02   -.165E+01 -.124E+00 -.779E+00   -.335E-04 0.531E-04 -.888E-05
   -.180E+03 -.179E+02 0.131E+02   0.182E+03 0.178E+02 -.140E+02   -.172E+01 0.107E+00 0.841E+00   -.360E-04 -.549E-04 0.109E-04
   -.182E+03 -.193E+02 0.128E+02   0.184E+03 0.192E+02 -.136E+02   -.174E+01 0.979E-01 0.816E+00   -.357E-04 -.550E-04 0.895E-05
   0.178E+03 0.177E+02 -.124E+02   -.180E+03 -.176E+02 0.131E+02   0.160E+01 -.128E+00 -.759E+00   0.330E-04 0.561E-04 -.975E-05
   -.178E+03 0.179E+02 -.127E+02   0.180E+03 -.178E+02 0.134E+02   -.161E+01 -.131E+00 -.761E+00   -.328E-04 0.553E-04 -.917E-05
   0.182E+03 -.192E+02 0.129E+02   -.183E+03 0.191E+02 -.137E+02   0.171E+01 0.114E+00 0.799E+00   0.352E-04 -.548E-04 0.985E-05
   0.386E+03 0.272E+03 0.229E+03   -.398E+03 -.309E+03 -.268E+03   0.121E+02 0.371E+02 0.384E+02   0.304E-04 0.530E-04 0.121E-04
   -.914E+02 -.463E+02 -.221E+03   0.125E+03 0.304E+02 0.261E+03   -.336E+02 0.159E+02 -.398E+02   0.822E-05 0.273E-04 -.415E-05
   -.914E+02 0.459E+02 0.221E+03   0.125E+03 -.300E+02 -.261E+03   -.335E+02 -.160E+02 0.399E+02   0.589E-05 -.266E-04 0.468E-05
   0.916E+02 -.463E+02 -.221E+03   -.125E+03 0.304E+02 0.261E+03   0.336E+02 0.159E+02 -.399E+02   -.991E-05 0.259E-04 0.750E-06
   0.911E+02 0.459E+02 0.220E+03   -.125E+03 -.299E+02 -.260E+03   0.335E+02 -.160E+02 0.399E+02   -.775E-05 -.267E-04 0.467E-05
   -.387E+03 -.271E+03 -.229E+03   0.399E+03 0.308E+03 0.267E+03   -.120E+02 -.371E+02 -.385E+02   -.359E-04 -.556E-04 -.128E-04
   -.386E+03 0.272E+03 0.228E+03   0.398E+03 -.310E+03 -.267E+03   -.120E+02 0.371E+02 0.384E+02   -.295E-04 0.533E-04 0.996E-05
   -.384E+03 -.269E+03 -.230E+03   0.396E+03 0.306E+03 0.269E+03   -.117E+02 -.369E+02 -.387E+02   -.380E-04 -.554E-04 -.132E-04
   0.385E+03 0.271E+03 0.229E+03   -.397E+03 -.308E+03 -.268E+03   0.120E+02 0.370E+02 0.385E+02   0.313E-04 0.566E-04 0.131E-04
   0.891E+02 0.450E+02 0.221E+03   -.123E+03 -.291E+02 -.261E+03   0.334E+02 -.160E+02 0.400E+02   -.684E-05 -.256E-04 0.299E-05
   0.913E+02 -.452E+02 -.221E+03   -.125E+03 0.292E+02 0.261E+03   0.333E+02 0.160E+02 -.400E+02   -.713E-05 0.273E-04 0.134E-05
   -.893E+02 0.449E+02 0.221E+03   0.123E+03 -.289E+02 -.261E+03   -.334E+02 -.160E+02 0.400E+02   0.637E-05 -.262E-04 0.261E-05
   0.385E+03 -.269E+03 -.229E+03   -.397E+03 0.306E+03 0.267E+03   0.117E+02 -.370E+02 -.386E+02   0.368E-04 -.534E-04 -.105E-04
   -.385E+03 0.271E+03 0.229E+03   0.397E+03 -.308E+03 -.267E+03   -.120E+02 0.370E+02 0.385E+02   -.314E-04 0.560E-04 0.983E-05
   0.387E+03 -.272E+03 -.228E+03   -.399E+03 0.309E+03 0.267E+03   0.120E+02 -.371E+02 -.384E+02   0.357E-04 -.556E-04 -.121E-04
   -.913E+02 -.454E+02 -.221E+03   0.125E+03 0.294E+02 0.261E+03   -.334E+02 0.161E+02 -.400E+02   0.513E-05 0.289E-04 -.359E-05
 -----------------------------------------------------------------------------------------------
   -.132E+00 -.896E-01 -.354E+00   0.966E-12 0.547E-12 -.625E-12   0.138E+00 0.961E-01 0.379E+00   -.171E-04 -.424E-04 0.157E-04
 
 
 POSITION                                       TOTAL-FORCE (eV/Angst)
 -----------------------------------------------------------------------------------
     13.11184     30.37738     -1.27074         0.005051      0.001124     -0.004654
     11.98345     29.98997      0.61121        -0.000419      0.003030      0.007777
     13.12985     24.84375      4.32924         0.005230     -0.002201      0.004648
      8.04572     14.32241      3.12144        -0.005471      0.001305     -0.003626
      9.16015      9.58099      0.24080        -0.000274     -0.002666     -0.006783
      2.12529     25.44545     -0.83622        -0.000590     -0.003845     -0.007141
      9.17082     13.93739      5.00585        -0.000444      0.000770      0.006625
      8.02471      9.19829      2.11963        -0.006537      0.000614      0.004987
      4.93939     14.15147      1.70686        -0.001972      0.005122      0.007892
      0.99477     25.06025      1.04493        -0.005282     -0.002588      0.005585
      2.10918     29.79645      3.92595         0.001062      0.002685      0.005315
      4.92455      9.38911      3.54380         0.002935     -0.003746     -0.004590
     11.99619     25.22318      2.44869         0.000146     -0.004265     -0.006047
      0.97657     30.18350      2.04635        -0.004599      0.000346     -0.004414
      6.05246      9.00532      5.42693         0.004975      0.001065      0.003105
      6.07266     14.53861     -0.17227         0.004881      0.000859     -0.002207
     10.91483      0.93133      0.61099        -0.001185      0.002685      0.001743
     12.14272      1.49278      2.73117        -0.000769      0.004724      0.004648
     12.17181     22.01948      2.50236        -0.002281     -0.002272     -0.002692
      9.01393     17.13810      4.95580         0.000581      0.006353      0.002985
      8.98201      6.37717      0.28802         0.002360     -0.001423     -0.002692
      3.18219     22.80391      1.33946         0.000486     -0.002376     -0.003011
     10.24022     16.57388      2.83540        -0.001466     -0.000849      0.000704
     10.20288      6.93545      2.41284         0.001010     -0.000347      0.000050
      3.88283     16.79579     -0.45666        -0.001525      0.002668     -0.000457
      1.96066     22.24414     -0.78467        -0.000562     -0.003689     -0.005055
      1.94270      1.30006      6.05121        -0.000147      0.002526      0.003923
      5.08747      6.18854      3.59627        -0.003862     -0.004057      0.000960
     10.95215     22.58131      4.62678         0.001506     -0.000918     -0.001389
      3.16323      0.74087      3.92650        -0.001584      0.006402      0.003190
      3.86517      6.74963      5.72010         0.001375     -0.001449     -0.003153
      5.10564     17.35401      1.66682         0.000604      0.003229      0.005719
     10.43542      2.33448      0.54565         0.002611      0.002234      0.001580
     11.62743      2.88081      2.63335        -0.004311      0.003034     -0.006605
     11.66067     20.62994      2.60563        -0.001500      0.002443      0.002882
      9.52896     18.52634      4.85565         0.001527     -0.003975     -0.005125
      9.49416      4.98774      0.38788         0.002450      0.000391      0.003201
      3.65798     21.39922      1.40753        -0.002338     -0.002779      0.000463
     10.72017     17.97671      2.76850        -0.002423      0.001784      0.000043
     10.68438      5.53307      2.47686        -0.000034     -0.001758     -0.003703
      3.40461     18.19942     -0.52176         0.004850     -0.000568      0.001726
      2.46976     20.85416     -0.68254         0.002514      0.003379      0.004079
      2.45389      2.68960      5.95055         0.002302     -0.000956     -0.004319
      4.57833      4.79866      3.69922        -0.000936      0.000650      0.003997
     10.47132     21.17870      4.69389        -0.000707     -0.000523      0.000827
      3.64255      2.14405      3.86115        -0.001929      0.001794      0.000288
      3.38969      5.34492      5.78887         0.002757     -0.001141     -0.002339
      4.59412     18.74367      1.56755        -0.005048     -0.002787     -0.002969
      9.61899      2.32656      6.09204         0.004382     -0.005328      0.001696
     11.96931      3.81159      3.60756         0.000842     -0.005377      0.001339
     12.00240     19.69737      1.63323        -0.004174     -0.001239      0.001008
      9.19220     19.86727     -0.77198         0.000575     -0.000275     -0.003661
      9.14885      3.64817      6.01409         0.003751      0.002949      0.004888
      4.46636     20.99628      2.46422        -0.003107      0.003138      0.000660
     11.53267     18.37575      1.71374        -0.002393     -0.005078     -0.001290
     11.49821      5.13283      3.53029        -0.005177      0.005753     -0.000017
      2.58916     18.19197      5.02420         0.004004     -0.003956     -0.000469
      2.12223     19.51450      4.94469         0.003003      0.001004      0.000035
      2.11754      4.02910      0.32438         0.002628     -0.004792      0.000132
      4.92186      3.86702      2.72650        -0.002213      0.001037      0.000265
      9.66282     21.18866     -0.85206         0.003231      0.006723      0.002001
      4.45432      2.54467      2.80644        -0.004197     -0.004000      0.000810
      2.58525      5.35152      0.24469         0.003192      0.009356      0.000486
      4.93420     19.67363      2.54309        -0.001012      0.001114     -0.000683
     12.21696     30.95808     -0.36959         0.002612     -0.006876     -0.002167
     12.23712     24.25699      3.42999         0.000817      0.001393      0.001850
      8.93941     14.90403      4.02319         0.001211     -0.004451     -0.004288
      8.91778      8.61298      1.21972        -0.001777      0.004588      0.003817
      1.89139     24.47878      0.14620         0.000010      0.002563      0.001135
      5.17878     15.12107      0.72900        -0.000260     -0.002478     -0.004808
      1.87066     30.76569      2.94758        -0.000766     -0.003824     -0.004541
      5.15753      8.42306      4.52701        -0.000641      0.005302      0.002874
     10.79751      3.26290      1.55136         0.002282     -0.002302      0.001498
     10.83253     20.24888      3.68932        -0.001493      0.001713      0.002999
     10.35801     18.90691      3.77255        -0.000435     -0.002640      0.000753
     10.32289      4.60500      1.47066        -0.000173      0.002139      0.002684
      3.29616     20.47084      0.40158         0.001255      0.000217     -0.000432
      3.76755     19.12765      0.48376        -0.000631     -0.000802     -0.000535
      3.28015      3.07297      4.86629        -0.000273     -0.003985      0.000327
      3.75167      4.41602      4.78344        -0.000956      0.002023     -0.000876
      0.51045     27.82132     -1.76015        -0.003118     -0.003933     -0.002598
     13.59549     27.61416      1.53070         0.003991      0.005622     -0.001453
      6.53937     11.76539      2.62194         0.001583      0.000781      0.002444
      7.56103     11.97089     -0.67662        -0.000794     -0.002156     -0.003630
      5.55728      4.19107      1.90212         0.000969     -0.001442     -0.003446
     11.79374     17.63822      0.95485        -0.003476     -0.001108     -0.001415
     11.75968      5.86947      4.28984        -0.004681      0.001256      0.004473
      9.35839      1.59025      5.33189         0.001857     -0.001671     -0.003600
      9.40165     21.92642     -0.09342         0.005596      0.000021      0.002456
      8.55578     19.54469      0.05218        -0.003019      0.002053      0.003313
      1.48742     19.83920      4.12011        -0.002207     -0.000337     -0.003575
      1.48370      3.70483      1.14979        -0.002929     -0.000650      0.005008
     12.63835     20.01965      0.80860         0.002258     -0.000280     -0.004485
      2.32461      6.08793      1.00485         0.002991     -0.000802      0.002165
      2.32686     17.45541      4.26493         0.003369     -0.002037     -0.004411
      4.72685     21.73194      3.22522        -0.003793     -0.000929     -0.000079
      5.56832     19.34905      3.36824         0.001203     -0.000662      0.004086
      8.51288      3.97178      5.19008        -0.004103      0.001036     -0.005824
     12.60661      3.48774      4.43059         0.002465      0.002236      0.002531
      4.71695      1.80798      2.04739        -0.005451     -0.002883     -0.002919
      9.76982     14.40100     -0.68752         0.002296      0.000765     -0.001963
      4.32735      9.33386      2.63805         0.000954     -0.001883      0.000907
      6.51205     14.55269      5.53390         0.000587      0.000663     -0.000981
      0.55408     24.63854      1.94151        -0.001045     -0.001141     -0.000221
      2.71177     30.25899     -1.76978         0.000530      0.001519      0.000886
      6.49648      8.99324     -0.27646        -0.000417     -0.002549     -0.000401
     13.54748     30.39135      4.43348         0.000344     -0.000622      0.000131
     11.39788     25.16510      1.54378         0.001580     -0.000203      0.001121
      0.53385     30.60664      1.15138        -0.001539     -0.000294     -0.000731
      7.60791     14.74392      2.22337        -0.001763      0.001064     -0.001420
      9.75517      9.11558      5.93730        -0.001109      0.000340      0.000429
     11.38705     30.04356      1.51764        -0.001712      0.001218     -0.001851
      7.58007      8.77724      3.01468         0.000093      0.000181     -0.002561
      4.34109     14.20553      2.61190        -0.001689      0.000780      0.000762
      2.71987     24.98206      4.85982        -0.002424     -0.001277      0.001363
     13.57819     24.83275     -1.37574        -0.000328      0.000436     -0.000385
     13.40087     29.13527     -0.84822        -0.002063      0.003422     -0.002872
     12.70102     28.88820      0.30366        -0.004164      0.006305      0.001005
     13.41080     26.08711      3.90531        -0.002404     -0.002663      0.005297
      7.75524     13.08119      3.54538         0.002105      0.001903     -0.004167
      8.44856     10.68703      0.54774         0.005734     -0.008081     -0.000410
      1.40602     26.54711     -0.53183         0.004690     -0.005537     -0.000360
      8.45315     12.83559      4.69870         0.004343      0.003853      0.001179
      7.74460     10.44263      1.69779         0.001764     -0.004014      0.004098
      5.65260     13.04745      1.39796        -0.004891      0.006173      0.000862
      0.70514     26.30120      0.61967         0.002538     -0.004247      0.004114
      1.39530     28.69280      3.61714         0.004840      0.003934      0.001416
      5.64274     10.49131      3.84890        -0.005235     -0.007042      0.000601
     12.70790     26.32949      2.75419        -0.004846     -0.003858     -0.000063
      0.69266     28.93950      2.46683         0.002151      0.001969     -0.002841
      6.34200     10.24628      5.00163        -0.000141     -0.000794      0.003715
      6.35567     13.29431      0.24805        -0.003097      0.001299     -0.005166
     11.70957      0.58851      1.73252         0.001680     -0.002617      0.001894
     11.73812     22.92557      3.49926         0.000539      0.000630     -0.002654
      9.44537     16.23261      3.95733        -0.000390      0.003633      0.003356
      9.41640      7.28146      1.28631         0.001203     -0.000274     -0.001156
      2.39419     23.14880      0.21344        -0.000003     -0.000611     -0.001837
      4.67603     16.45120      0.66532         0.001306      0.001471      0.001314
      2.37129      0.39683      5.04965         0.000980      0.001823      0.001469
      4.65449      7.09334      4.59456        -0.001127     -0.001092     -0.001753
     10.63654     -0.30755      6.35005         0.002445     -0.000943      0.000036
     12.90223      1.13560      3.62883        -0.004103     -0.001722     -0.002035
     12.92775     22.37649      1.60170        -0.003680      0.000331     -0.000434
      8.25997     17.19069     -0.74587         0.005438      0.000744     -0.000671
      8.22027      6.32667      5.98995         0.006104      0.001177      0.001353
      3.45357     23.63379      2.20214        -0.002266      0.004813      0.002602
     10.51357     15.74278      1.97444        -0.003239      0.001780     -0.001378
     10.46905      7.76266      3.27976        -0.002876      0.004598     -0.001174
      3.60509     15.55795      5.28128         0.005464     -0.002072     -0.001855
      1.20137     22.19346      4.91506         0.005284     -0.000239      0.003761
      1.19380      1.34989      0.35267         0.004442     -0.000552     -0.003403
      5.84157      6.54667      2.69450        -0.002495     -0.000140      0.002185
     10.69012     23.81903     -1.10882         0.002408      0.004172      0.002946
      3.43473     -0.08805      3.06302        -0.002255     -0.004272     -0.001855
      3.59693      7.98926     -0.01912         0.003595     -0.001131     -0.002899
      5.85982     16.99464      2.56805        -0.003985      0.001111     -0.001809
 -----------------------------------------------------------------------------------
    total drift:                                0.006106      0.006401      0.025508


--------------------------------------------------------------------------------------------------------



  FREE ENERGIE OF THE ION-ELECTRON SYSTEM (eV)
  ---------------------------------------------------
  free  energy   TOTEN  =     -1161.96799292 eV

  energy  without entropy=    -1161.96799292  energy(sigma->0) =    -1161.96799292
 


--------------------------------------------------------------------------------------------------------


    POTLOK:  cpu time    0.1391: real time    0.1394


--------------------------------------------------------------------------------------------------------




--------------------------------------------------------------------------------------------------------


  
 reached required accuracy - stopping structural energy minimisation
 writing wavefunctions
     LOOP+:  cpu time  573.1323: real time  585.7832
    4ORBIT:  cpu time    0.0000: real time    0.0000

 total amount of memory used by VASP MPI-rank0   119701. kBytes
=======================================================================

   base      :      30000. kBytes
   nonlr-proj:       6102. kBytes
   fftplans  :       8625. kBytes
   grid      :      14656. kBytes
   one-center:        606. kBytes
   wavefun   :      59712. kBytes
 
  
  
 General timing and accounting informations for this job:
 ========================================================
  
                  Total CPU time used (sec):      660.483
                            User time (sec):      601.975
                          System time (sec):       58.507
                         Elapsed time (sec):      674.515
  
                   Maximum memory used (kb):      978200.
                   Average memory used (kb):           0.
  
                          Minor page faults:       411331
                          Major page faults:            3
                 Voluntary context switches:        13024
