       N       E                     dE             d eps       ncg     rms          rms(c)
RMM:   1     0.595829529238E+04    0.59583E+04   -0.27325E+05  2800   0.141E+03
RMM:   2     0.202700725245E+04   -0.39313E+04   -0.66798E+04  2800   0.322E+02
RMM:   3     0.289328977301E+01   -0.20241E+04   -0.23406E+04  2800   0.177E+02
RMM:   4    -0.815087941888E+03   -0.81798E+03   -0.77553E+03  2800   0.129E+02
RMM:   5    -0.109000273158E+04   -0.27491E+03   -0.24348E+03  2800   0.727E+01
RMM:   6    -0.118053559032E+04   -0.90533E+02   -0.79907E+02  2800   0.458E+01
RMM:   7    -0.121297936697E+04   -0.32444E+02   -0.29020E+02  2800   0.270E+01
RMM:   8    -0.122500499755E+04   -0.12026E+02   -0.10690E+02  2800   0.188E+01
RMM:   9    -0.123356004245E+04   -0.85550E+01   -0.80459E+01  7383   0.111E+01
RMM:  10    -0.123373502815E+04   -0.17499E+00   -0.25512E+00  6914   0.201E+00
RMM:  11    -0.123375619918E+04   -0.21171E-01   -0.20618E-01  7213   0.556E-01
RMM:  12    -0.123375687731E+04   -0.67813E-03   -0.93216E-03  7206   0.102E-01    0.576E+01
RMM:  13    -0.116376145447E+04    0.69995E+02   -0.15256E+02  5600   0.162E+01    0.320E+01
RMM:  14    -0.115019941987E+04    0.13562E+02   -0.41252E+01  5600   0.843E+00    0.149E+01
RMM:  15    -0.114919841759E+04    0.10010E+01   -0.95217E+00  5600   0.438E+00    0.494E+00
RMM:  16    -0.114909025251E+04    0.10817E+00   -0.68327E-01  5709   0.139E+00    0.133E+00
RMM:  17    -0.114910262609E+04   -0.12374E-01   -0.15074E-01  5656   0.657E-01    0.413E-01
RMM:  18    -0.114910408132E+04   -0.14552E-02   -0.15890E-02  5650   0.214E-01    0.200E-01
RMM:  19    -0.114910612397E+04   -0.20426E-02   -0.52685E-03  5680   0.103E-01    0.911E-02
RMM:  20    -0.114910591687E+04    0.20711E-03   -0.15299E-03  5609   0.582E-02    0.562E-02
RMM:  21    -0.114910560696E+04    0.30991E-03   -0.47753E-04  5600   0.346E-02    0.173E-02
RMM:  22    -0.114910554835E+04    0.58604E-04   -0.10373E-04  5645   0.127E-02    0.131E-02
RMM:  23    -0.114910551486E+04    0.33499E-04   -0.51531E-05  5573   0.949E-03    0.482E-03
RMM:  24    -0.114910551516E+04   -0.30323E-06   -0.58747E-06  4365   0.321E-03
   1 F= -.11634522E+04 E0= -.11634522E+04  d E =-.116345E+04
