 vasp.6.0.8 29Jun18 (build Mar 14 2019 11:44:20) complex                        
  
 executed on             LinuxIFC date 2021.01.06  12:49:42
 running   64 mpi-ranks, with    1 threads/rank
 distrk:  each k-point on   64 cores,    1 groups
 distr:  one band on NCORES_PER_BAND=   4 cores,   16 groups


--------------------------------------------------------------------------------------------------------


 INCAR:
 POTCAR:    PAW_PBE C 08Apr2002                   
 POTCAR:    PAW_PBE Zn 06Sep2000                  
 POTCAR:    PAW_PBE H 15Jun2001                   
 POTCAR:    PAW_PBE N 08Apr2002                   
 POTCAR:    PAW_PBE O 08Apr2002                   
 POTCAR:    PAW_PBE C 08Apr2002                   
   VRHFIN =C: s2p2                                                              
   LEXCH  = PE                                                                  
   EATOM  =   147.1560 eV,   10.8157 Ry                                         
                                                                                
   TITEL  = PAW_PBE C 08Apr2002                                                 
   LULTRA =        F    use ultrasoft PP ?                                      
   IUNSCR =        1    unscreen: 0-lin 1-nonlin 2-no                           
   RPACOR =    1.200    partial core radius                                     
   POMASS =   12.011; ZVAL   =    4.000    mass and valenz                      
   RCORE  =    1.500    outmost cutoff radius                                   
   RWIGS  =    1.630; RWIGS  =    0.863    wigner-seitz radius (au A)           
   ENMAX  =  400.000; ENMIN  =  300.000 eV                                      
   ICORE  =        2    local potential                                         
   LCOR   =        T    correct aug charges                                     
   LPAW   =        T    paw PP                                                  
   EAUG   =  644.873                                                            
   DEXC   =    0.000                                                            
   RMAX   =    1.529    core radius for proj-oper                               
   RAUG   =    1.300    factor for augmentation sphere                          
   RDEP   =    1.501    radius for radial grids                                 
   RDEPT  =    1.300    core radius for aug-charge                              
                                                                                
   Atomic configuration                                                         
    4 entries                                                                   
     n  l   j            E        occ.                                          
     1  0  0.50      -273.3789   2.0000                                         
     2  0  0.50       -13.7508   2.0000                                         
     2  1  0.50        -5.2854   2.0000                                         
     3  2  1.50        -5.4423   0.0000                                         
   Description                                                                  
     l       E           TYP  RCUT    TYP  RCUT                                 
     0    -13.7508458     23  1.200                                             
     0     -8.2022199     23  1.200                                             
     1     -5.2854383     23  1.500                                             
     1     34.0145650     23  1.500                                             
     2     -5.4423304      7  1.500                                             
  local pseudopotential read in
  partial core-charges read in
  partial kinetic energy density read in
  atomic valenz-charges read in
  non local Contribution for L=           0  read in
    real space projection operators read in
  non local Contribution for L=           0  read in
    real space projection operators read in
  non local Contribution for L=           1  read in
    real space projection operators read in
  non local Contribution for L=           1  read in
    real space projection operators read in
    PAW grid and wavefunctions read in
 
   number of l-projection  operators is LMAX  =           4
   number of lm-projection operators is LMMAX =           8
 
 POTCAR:    PAW_PBE Zn 06Sep2000                  
   VRHFIN =Zn: d10 p2                                                           
   LEXCH  = PE                                                                  
   EATOM  =  1748.8345 eV,  128.5357 Ry                                         
                                                                                
   TITEL  = PAW_PBE Zn 06Sep2000                                                
   LULTRA =        F    use ultrasoft PP ?                                      
   IUNSCR =        1    unscreen: 0-lin 1-nonlin 2-no                           
   RPACOR =    2.000    partial core radius                                     
   POMASS =   65.390; ZVAL   =   12.000    mass and valenz                      
   RCORE  =    2.300    outmost cutoff radius                                   
   RWIGS  =    2.400; RWIGS  =    1.270    wigner-seitz radius (au A)           
   ENMAX  =  276.723; ENMIN  =  207.542 eV                                      
   RCLOC  =    1.828    cutoff for local pot                                    
   LCOR   =        T    correct aug charges                                     
   LPAW   =        T    paw PP                                                  
   EAUG   =  575.892                                                            
   DEXC   =    0.000                                                            
   RMAX   =    2.347    core radius for proj-oper                               
   RAUG   =    1.300    factor for augmentation sphere                          
   RDEP   =    2.324    radius for radial grids                                 
   RDEPT  =    1.788    core radius for aug-charge                              
                                                                                
   Atomic configuration                                                         
    9 entries                                                                   
     n  l   j            E        occ.                                          
     1  0  0.50     -9524.6913   2.0000                                         
     2  0  0.50     -1158.1882   2.0000                                         
     2  1  1.50     -1003.8506   6.0000                                         
     3  0  0.50      -129.2194   2.0000                                         
     3  1  1.50       -83.3890   6.0000                                         
     3  2  2.50       -10.1410  10.0000                                         
     4  0  0.50        -5.9785   2.0000                                         
     4  1  0.50        -4.0817   0.0000                                         
     4  3  2.50        -1.3606   0.0000                                         
   Description                                                                  
     l       E           TYP  RCUT    TYP  RCUT                                 
     2    -10.1410010     23  2.300                                             
     2    -11.5015836     23  2.300                                             
     0     -5.9785163     23  2.300                                             
     0      1.1858015     23  2.300                                             
     1     -2.7211652     23  2.300                                             
     1     13.2444212     23  2.300                                             
  local pseudopotential read in
  partial core-charges read in
  partial kinetic energy density read in
  atomic valenz-charges read in
  non local Contribution for L=           2  read in
    real space projection operators read in
  non local Contribution for L=           2  read in
    real space projection operators read in
  non local Contribution for L=           0  read in
    real space projection operators read in
  non local Contribution for L=           0  read in
    real space projection operators read in
  non local Contribution for L=           1  read in
    real space projection operators read in
  non local Contribution for L=           1  read in
    real space projection operators read in
    PAW grid and wavefunctions read in
 
   number of l-projection  operators is LMAX  =           6
   number of lm-projection operators is LMMAX =          18
 
 POTCAR:    PAW_PBE H 15Jun2001                   
   VRHFIN =H: ultrasoft test                                                    
   LEXCH  = PE                                                                  
   EATOM  =    12.4884 eV,    0.9179 Ry                                         
                                                                                
   TITEL  = PAW_PBE H 15Jun2001                                                 
   LULTRA =        F    use ultrasoft PP ?                                      
   IUNSCR =        0    unscreen: 0-lin 1-nonlin 2-no                           
   RPACOR =    0.000    partial core radius                                     
   POMASS =    1.000; ZVAL   =    1.000    mass and valenz                      
   RCORE  =    1.100    outmost cutoff radius                                   
   RWIGS  =    0.700; RWIGS  =    0.370    wigner-seitz radius (au A)           
   ENMAX  =  250.000; ENMIN  =  200.000 eV                                      
   RCLOC  =    0.701    cutoff for local pot                                    
   LCOR   =        T    correct aug charges                                     
   LPAW   =        T    paw PP                                                  
   EAUG   =  400.000                                                            
   RMAX   =    1.123    core radius for proj-oper                               
   RAUG   =    1.200    factor for augmentation sphere                          
   RDEP   =    1.112    radius for radial grids                                 
   RDEPT  =    0.926    core radius for aug-charge                              
                                                                                
   Atomic configuration                                                         
    2 entries                                                                   
     n  l   j            E        occ.                                          
     1  0  0.50        -6.4927   1.0000                                         
     2  1  0.50        -3.4015   0.0000                                         
   Description                                                                  
     l       E           TYP  RCUT    TYP  RCUT                                 
     0     -6.4927494     23  1.100                                             
     0      6.8029130     23  1.100                                             
     1     -4.0817478     23  1.100                                             
  local pseudopotential read in
  atomic valenz-charges read in
  non local Contribution for L=           0  read in
    real space projection operators read in
  non local Contribution for L=           0  read in
    real space projection operators read in
  non local Contribution for L=           1  read in
    real space projection operators read in
    PAW grid and wavefunctions read in
 
   number of l-projection  operators is LMAX  =           3
   number of lm-projection operators is LMMAX =           5
 
 POTCAR:    PAW_PBE N 08Apr2002                   
   VRHFIN =N: s2p3                                                              
   LEXCH  = PE                                                                  
   EATOM  =   264.5486 eV,   19.4438 Ry                                         
                                                                                
   TITEL  = PAW_PBE N 08Apr2002                                                 
   LULTRA =        F    use ultrasoft PP ?                                      
   IUNSCR =        1    unscreen: 0-lin 1-nonlin 2-no                           
   RPACOR =    1.200    partial core radius                                     
   POMASS =   14.001; ZVAL   =    5.000    mass and valenz                      
   RCORE  =    1.500    outmost cutoff radius                                   
   RWIGS  =    1.400; RWIGS  =    0.741    wigner-seitz radius (au A)           
   ENMAX  =  400.000; ENMIN  =  300.000 eV                                      
   ICORE  =        2    local potential                                         
   LCOR   =        T    correct aug charges                                     
   LPAW   =        T    paw PP                                                  
   EAUG   =  627.112                                                            
   DEXC   =    0.000                                                            
   RMAX   =    1.529    core radius for proj-oper                               
   RAUG   =    1.300    factor for augmentation sphere                          
   RDEP   =    1.514    radius for radial grids                                 
   RDEPT  =    1.338    core radius for aug-charge                              
                                                                                
   Atomic configuration                                                         
    4 entries                                                                   
     n  l   j            E        occ.                                          
     1  0  0.50      -384.7179   2.0000                                         
     2  0  0.50       -18.5828   2.0000                                         
     2  1  0.50        -7.0898   3.0000                                         
     3  2  1.50        -6.8029   0.0000                                         
   Description                                                                  
     l       E           TYP  RCUT    TYP  RCUT                                 
     0    -18.5828119     23  1.200                                             
     0    -13.5018863     23  1.200                                             
     1     -7.0897853     23  1.500                                             
     1      9.5240782     23  1.500                                             
     2     -6.8029130      7  1.500                                             
  local pseudopotential read in
  partial core-charges read in
  partial kinetic energy density read in
  atomic valenz-charges read in
  non local Contribution for L=           0  read in
    real space projection operators read in
  non local Contribution for L=           0  read in
    real space projection operators read in
  non local Contribution for L=           1  read in
    real space projection operators read in
  non local Contribution for L=           1  read in
    real space projection operators read in
    PAW grid and wavefunctions read in
 
   number of l-projection  operators is LMAX  =           4
   number of lm-projection operators is LMMAX =           8
 
 POTCAR:    PAW_PBE O 08Apr2002                   
   VRHFIN =O: s2p4                                                              
   LEXCH  = PE                                                                  
   EATOM  =   432.3788 eV,   31.7789 Ry                                         
                                                                                
   TITEL  = PAW_PBE O 08Apr2002                                                 
   LULTRA =        F    use ultrasoft PP ?                                      
   IUNSCR =        1    unscreen: 0-lin 1-nonlin 2-no                           
   RPACOR =    1.200    partial core radius                                     
   POMASS =   16.000; ZVAL   =    6.000    mass and valenz                      
   RCORE  =    1.520    outmost cutoff radius                                   
   RWIGS  =    1.550; RWIGS  =    0.820    wigner-seitz radius (au A)           
   ENMAX  =  400.000; ENMIN  =  300.000 eV                                      
   ICORE  =        2    local potential                                         
   LCOR   =        T    correct aug charges                                     
   LPAW   =        T    paw PP                                                  
   EAUG   =  605.392                                                            
   DEXC   =    0.000                                                            
   RMAX   =    1.553    core radius for proj-oper                               
   RAUG   =    1.300    factor for augmentation sphere                          
   RDEP   =    1.550    radius for radial grids                                 
   RDEPT  =    1.329    core radius for aug-charge                              
                                                                                
   Atomic configuration                                                         
    4 entries                                                                   
     n  l   j            E        occ.                                          
     1  0  0.50      -514.6923   2.0000                                         
     2  0  0.50       -23.9615   2.0000                                         
     2  1  0.50        -9.0305   4.0000                                         
     3  2  1.50        -9.5241   0.0000                                         
   Description                                                                  
     l       E           TYP  RCUT    TYP  RCUT                                 
     0    -23.9615318     23  1.200                                             
     0     -9.5240782     23  1.200                                             
     1     -9.0304911     23  1.520                                             
     1      8.1634956     23  1.520                                             
     2     -9.5240782      7  1.500                                             
  local pseudopotential read in
  partial core-charges read in
  partial kinetic energy density read in
  kinetic energy density of atom read in
  atomic valenz-charges read in
  non local Contribution for L=           0  read in
    real space projection operators read in
  non local Contribution for L=           0  read in
    real space projection operators read in
  non local Contribution for L=           1  read in
    real space projection operators read in
  non local Contribution for L=           1  read in
    real space projection operators read in
    PAW grid and wavefunctions read in
 
   number of l-projection  operators is LMAX  =           4
   number of lm-projection operators is LMMAX =           8
 
 Optimization of the real space projectors (new method)

 maximal supplied QI-value         = 25.13
 optimisation between [QCUT,QGAM] = [ 12.32, 24.88] = [ 42.47,173.37] Ry 
 Optimized for a Real-space Cutoff    1.06 Angstroem

   l    n(q)    QCUT    max X(q) W(low)/X(q) W(high)/X(q)  e(spline) 
   0      8    12.315   115.676    0.34E-03    0.18E-03    0.23E-06
   0      8    12.315    87.132    0.34E-03    0.18E-03    0.22E-06
   1      7    12.315     4.429    0.45E-03    0.12E-03    0.18E-06
   1      7    12.315     2.733    0.35E-03    0.97E-04    0.15E-06
 Optimization of the real space projectors (new method)

 maximal supplied QI-value         = 16.25
 optimisation between [QCUT,QGAM] = [ 12.51, 25.03] = [ 43.85,175.40] Ry 
 Optimized for a Real-space Cutoff    1.31 Angstroem

   l    n(q)    QCUT    max X(q) W(low)/X(q) W(high)/X(q)  e(spline) 
   2      9    12.514    46.356    0.36E-03    0.54E-03    0.48E-06
   2      9    12.514    41.843    0.37E-03    0.56E-03    0.49E-06
   0     10    12.514    48.958    0.13E-03    0.28E-03    0.23E-06
   0     10    12.514    32.776    0.12E-03    0.26E-03    0.22E-06
   1      9    12.514    17.787    0.44E-03    0.44E-04    0.36E-06
   1      9    12.514    14.435    0.39E-03    0.39E-04    0.32E-06
 Optimization of the real space projectors (new method)

 maximal supplied QI-value         = 34.20
 optimisation between [QCUT,QGAM] = [ 12.31, 24.97] = [ 42.46,174.58] Ry 
 Optimized for a Real-space Cutoff    1.00 Angstroem

   l    n(q)    QCUT    max X(q) W(low)/X(q) W(high)/X(q)  e(spline) 
   0      7    12.313    19.460    0.14E-03    0.42E-03    0.16E-06
   0      7    12.313    12.209    0.12E-03    0.40E-03    0.16E-06
   1      7    12.313     4.655    0.33E-03    0.59E-03    0.89E-07
 Optimization of the real space projectors (new method)

 maximal supplied QI-value         = 25.13
 optimisation between [QCUT,QGAM] = [ 12.32, 24.88] = [ 42.47,173.37] Ry 
 Optimized for a Real-space Cutoff    1.20 Angstroem

   l    n(q)    QCUT    max X(q) W(low)/X(q) W(high)/X(q)  e(spline) 
   0      9    12.315    79.467    0.14E-03    0.22E-04    0.37E-06
   0      9    12.315    66.151    0.14E-03    0.23E-04    0.36E-06
   1      8    12.315    22.077    0.30E-03    0.54E-03    0.45E-06
   1      8    12.315    15.894    0.30E-03    0.55E-03    0.45E-06
 Optimization of the real space projectors (new method)

 maximal supplied QI-value         = 24.76
 optimisation between [QCUT,QGAM] = [ 12.38, 25.00] = [ 42.90,175.06] Ry 
 Optimized for a Real-space Cutoff    1.13 Angstroem

   l    n(q)    QCUT    max X(q) W(low)/X(q) W(high)/X(q)  e(spline) 
   0      8    12.378    20.381    0.16E-03    0.54E-05    0.27E-06
   0      8    12.378    15.268    0.17E-03    0.61E-05    0.29E-06
   1      8    12.378     5.964    0.38E-03    0.23E-03    0.28E-06
   1      8    12.378     5.382    0.33E-03    0.20E-03    0.25E-06
  PAW_PBE C 08Apr2002                   :
 energy of atom  1       EATOM= -147.1560
 kinetic energy error for atom=    0.0057 (will be added to EATOM!!)
  PAW_PBE Zn 06Sep2000                  :
 energy of atom  2       EATOM=-1748.8345
 kinetic energy error for atom=    0.0020 (will be added to EATOM!!)
  PAW_PBE H 15Jun2001                   :
 energy of atom  3       EATOM=  -12.4884
 kinetic energy error for atom=    0.0004 (will be added to EATOM!!)
  PAW_PBE N 08Apr2002                   :
 energy of atom  4       EATOM= -264.5486
 kinetic energy error for atom=    0.0103 (will be added to EATOM!!)
  PAW_PBE O 08Apr2002                   :
 energy of atom  5       EATOM= -432.3788
 kinetic energy error for atom=    0.0168 (will be added to EATOM!!)
 
 
 POSCAR: Zn_H
  positions in direct lattice
  velocities in cartesian coordinates
 exchange correlation table for  LEXCH =        8
   RHO(1)=    0.500       N(1)  =     2000
   RHO(2)=  100.500       N(2)  =     4000
 


--------------------------------------------------------------------------------------------------------


 ion  position               nearest neighbor table
   1  0.897  0.957  0.158- 107 1.08 117 1.34  65 1.39
   2  0.748  0.952  0.427- 112 1.09 118 1.36  65 1.40
   3  0.898  0.799  0.888- 116 1.08 119 1.34  66 1.39
   4  0.603  0.457  0.656- 110 1.08 120 1.34  67 1.39
   5  0.751  0.304  0.118- 111 1.09 121 1.36  68 1.40
   6  0.247  0.804  0.120- 115 1.09 122 1.36  69 1.40
   7  0.751  0.452  0.925- 101 1.09 123 1.36  67 1.40
   8  0.601  0.298  0.386- 113 1.08 124 1.34  68 1.39
   9  0.253  0.452  0.425- 114 1.09 125 1.36  70 1.40
  10  0.099  0.799  0.389- 104 1.08 126 1.34  69 1.39
  11  0.247  0.952  0.927- 105 1.09 127 1.36  71 1.40
  12  0.252  0.304  0.619- 102 1.09 128 1.36  72 1.40
  13  0.749  0.804  0.620- 108 1.09 129 1.36  66 1.40
  14  0.098  0.957  0.658- 109 1.08 130 1.34  71 1.39
  15  0.401  0.299  0.887- 106 1.08 131 1.34  72 1.39
  16  0.402  0.457  0.156- 103 1.08 132 1.34  70 1.39
  17  0.684  0.032  0.136- 141 1.23 133 1.41  33 1.48
  18  0.826  0.051  0.469- 142 1.23 133 1.41  34 1.48
  19  0.827  0.705  0.577- 143 1.23 134 1.41  35 1.48
  20  0.674  0.551  0.968- 144 1.23 135 1.41  36 1.48
  21  0.672  0.205  0.076- 145 1.23 136 1.41  37 1.48
  22  0.312  0.724  0.412- 146 1.23 137 1.41  38 1.48
  23  0.816  0.532  0.634- 147 1.23 135 1.41  39 1.48
  24  0.814  0.224  0.410- 148 1.23 136 1.41  40 1.48
  25  0.189  0.532  0.134- 149 1.23 138 1.41  41 1.48
  26  0.172  0.705  0.077- 150 1.23 137 1.41  42 1.48
  27  0.170  0.051  0.968- 151 1.23 139 1.41  43 1.48
  28  0.328  0.205  0.576- 152 1.23 140 1.41  44 1.48
  29  0.686  0.724  0.911- 153 1.23 134 1.41  45 1.48
  30  0.311  0.032  0.635- 154 1.23 139 1.41  46 1.48
  31  0.188  0.224  0.911- 155 1.23 140 1.41  47 1.48
  32  0.330  0.551  0.468- 156 1.23 138 1.41  48 1.48
  33  0.686  0.076  0.121-  49 1.39  73 1.41  17 1.48
  34  0.815  0.095  0.455-  50 1.39  73 1.41  18 1.48
  35  0.817  0.660  0.591-  51 1.39  74 1.41  19 1.48
  36  0.684  0.595  0.954-  52 1.39  75 1.41  20 1.48
  37  0.682  0.160  0.090-  53 1.39  76 1.41  21 1.48
  38  0.311  0.680  0.425-  54 1.39  77 1.41  22 1.48
  39  0.813  0.576  0.620-  55 1.39  75 1.41  23 1.48
  40  0.811  0.179  0.424-  56 1.39  76 1.41  24 1.48
  41  0.190  0.576  0.120-  57 1.39  78 1.41  25 1.48
  42  0.183  0.661  0.091-  58 1.39  77 1.41  26 1.48
  43  0.181  0.095  0.954-  59 1.39  79 1.41  27 1.48
  44  0.317  0.160  0.591-  60 1.39  80 1.41  28 1.48
  45  0.689  0.679  0.925-  61 1.39  74 1.41  29 1.48
  46  0.310  0.076  0.620-  62 1.39  79 1.41  30 1.48
  47  0.188  0.180  0.925-  63 1.39  80 1.41  31 1.48
  48  0.318  0.595  0.454-  64 1.39  78 1.41  32 1.48
  49  0.625  0.088  0.950-  88 1.09  33 1.39  53 1.40
  50  0.876  0.126  0.610-  99 1.09  34 1.39  56 1.40
  51  0.878  0.630  0.435-  93 1.09  35 1.39  55 1.40
  52  0.624  0.626  0.110-  90 1.09  36 1.39  61 1.40
  53  0.622  0.130  0.935-  98 1.09  37 1.39  49 1.40
  54  0.373  0.668  0.596-  96 1.09  38 1.39  64 1.40
  55  0.874  0.588  0.449-  86 1.09  39 1.39  51 1.40
  56  0.873  0.168  0.595-  87 1.09  40 1.39  50 1.40
  57  0.128  0.588  0.949-  95 1.09  41 1.39  58 1.40
  58  0.124  0.630  0.935-  91 1.09  42 1.39  57 1.40
  59  0.122  0.126  0.110-  92 1.09  43 1.39  63 1.40
  60  0.376  0.130  0.435-  85 1.09  44 1.39  62 1.40
  61  0.627  0.668  0.096-  89 1.09  45 1.39  52 1.40
  62  0.371  0.088  0.449- 100 1.09  46 1.39  60 1.40
  63  0.127  0.168  0.096-  94 1.09  47 1.39  59 1.40
  64  0.378  0.626  0.610-  97 1.09  48 1.39  54 1.40
  65  0.791  0.979  0.301-   1 1.39   2 1.40 133 1.42
  66  0.792  0.777  0.745-   3 1.39  13 1.40 134 1.42
  67  0.709  0.479  0.799-   4 1.39   7 1.40 135 1.42
  68  0.708  0.276  0.244-   8 1.39   5 1.40 136 1.42
  69  0.205  0.777  0.246-  10 1.39   6 1.40 137 1.42
  70  0.296  0.479  0.299-  16 1.39   9 1.40 138 1.42
  71  0.204  0.979  0.801-  14 1.39  11 1.40 139 1.42
  72  0.295  0.277  0.744-  15 1.39  12 1.40 140 1.42
  73  0.750  0.107  0.280-  33 1.41  34 1.41  76 1.42
  74  0.752  0.649  0.765-  35 1.41  45 1.41  75 1.42
  75  0.750  0.607  0.780-  39 1.41  36 1.41  74 1.42
  76  0.748  0.149  0.265-  40 1.41  37 1.41  73 1.42
  77  0.249  0.649  0.265-  38 1.41  42 1.41  78 1.42
  78  0.252  0.607  0.280-  41 1.41  48 1.41  77 1.42
  79  0.248  0.107  0.780-  46 1.41  43 1.41  80 1.42
  80  0.251  0.149  0.765-  47 1.41  44 1.41  79 1.42
  81  0.068  0.878  0.023- 127 1.99 122 1.99 119 2.02 117 2.02
  82  0.928  0.878  0.523- 118 1.99 129 1.99 126 2.02 130 2.02
  83  0.431  0.378  0.522- 125 1.99 128 1.99 124 2.02 120 2.02
  84  0.572  0.378  0.022- 123 1.99 121 1.99 131 2.02 132 2.02
  85  0.426  0.139  0.302-  60 1.09
  86  0.919  0.564  0.327-  55 1.09
  87  0.917  0.192  0.718-  56 1.09
  88  0.581  0.064  0.827-  49 1.09
  89  0.583  0.692  0.218-  61 1.09
  90  0.574  0.616  0.242-  52 1.09
  91  0.074  0.639  0.802-  58 1.09
  92  0.072  0.117  0.243-  59 1.09
  93  0.927  0.639  0.302-  51 1.09
  94  0.083  0.192  0.218-  63 1.09
  95  0.085  0.564  0.826-  57 1.09
  96  0.416  0.692  0.719-  54 1.09
  97  0.428  0.617  0.743-  64 1.09
  98  0.573  0.139  0.802-  53 1.09
  99  0.925  0.116  0.743-  50 1.09
 100  0.415  0.064  0.326-  62 1.09
 101  0.829  0.457  0.057-   7 1.09
 102  0.174  0.299  0.487-  12 1.09
 103  0.462  0.468  0.034-  16 1.08
 104  0.039  0.788  0.511-  10 1.08
 105  0.324  0.957  0.059-  11 1.09
 106  0.462  0.288  0.010-  15 1.08
 107  0.958  0.968  0.036-   1 1.08
 108  0.671  0.799  0.487-  13 1.09
 109  0.038  0.968  0.535-  14 1.08
 110  0.542  0.468  0.534-   4 1.08
 111  0.829  0.299  0.986-   5 1.09
 112  0.670  0.957  0.559-   2 1.09
 113  0.541  0.288  0.509-   8 1.08
 114  0.176  0.457  0.557-   9 1.09
 115  0.325  0.799  0.988-   6 1.09
 116  0.958  0.788  0.011-   3 1.08
 117  0.920  0.919  0.197-   1 1.34 118 1.37  81 2.02
 118  0.828  0.916  0.362-   2 1.36 117 1.37  82 1.99
 119  0.920  0.837  0.850-   3 1.34 129 1.37  81 2.02
 120  0.580  0.419  0.695-   4 1.34 123 1.37  83 2.02
 121  0.672  0.340  0.183-   5 1.36 124 1.37  84 1.99
 122  0.168  0.840  0.185-   6 1.36 126 1.37  81 1.99
 123  0.672  0.416  0.860-   7 1.36 120 1.37  84 1.99
 124  0.579  0.336  0.348-   8 1.34 121 1.37  83 2.02
 125  0.332  0.416  0.360-   9 1.36 132 1.37  83 1.99
 126  0.076  0.837  0.350-  10 1.34 122 1.37  82 2.02
 127  0.168  0.916  0.862-  11 1.36 130 1.37  81 1.99
 128  0.332  0.340  0.683-  12 1.36 131 1.37  83 1.99
 129  0.828  0.840  0.685-  13 1.36 119 1.37  82 1.99
 130  0.075  0.919  0.697-  14 1.34 127 1.37  82 2.02
 131  0.424  0.336  0.848-  15 1.34 128 1.37  84 2.02
 132  0.424  0.419  0.195-  16 1.34 125 1.37  84 2.02
 133  0.756  0.022  0.310-  18 1.41  17 1.41  65 1.42
 134  0.757  0.734  0.736-  19 1.41  29 1.41  66 1.42
 135  0.744  0.522  0.808-  20 1.41  23 1.41  67 1.42
 136  0.742  0.234  0.235-  21 1.41  24 1.41  68 1.42
 137  0.241  0.734  0.237-  26 1.41  22 1.41  69 1.42
 138  0.261  0.522  0.308-  32 1.41  25 1.41  70 1.42
 139  0.239  0.022  0.809-  27 1.41  30 1.41  71 1.42
 140  0.259  0.234  0.736-  28 1.41  31 1.41  72 1.42
 141  0.624  0.005  0.004-  17 1.23
 142  0.893  0.040  0.612-  18 1.23
 143  0.894  0.716  0.434-  19 1.23
 144  0.607  0.540  0.111-  20 1.23
 145  0.606  0.216  0.933-  21 1.23
 146  0.371  0.751  0.544-  22 1.23
 147  0.876  0.505  0.502-  23 1.23
 148  0.874  0.251  0.542-  24 1.23
 149  0.130  0.505  0.001-  25 1.23
 150  0.105  0.716  0.934-  26 1.23
 151  0.103  0.040  0.111-  27 1.23
 152  0.395  0.216  0.433-  28 1.23
 153  0.626  0.751  0.043-  29 1.23
 154  0.370  0.005  0.502-  30 1.23
 155  0.128  0.251  0.043-  31 1.23
 156  0.397  0.540  0.611-  32 1.23
 

IMPORTANT INFORMATION: All symmetrisations will be switched off!
NOSYMM: (Re-)initialisation of all symmetry stuff for point group C_1.


----------------------------------------------------------------------------------------

                                     Primitive cell                                     

  volume of cell :    1802.4019

  direct lattice vectors                    reciprocal lattice vectors
     8.292050563 -0.000712770 -0.000995278     0.120597429 -0.000008888 -0.000013047
     0.002046800 32.726201276 -3.375233297     0.000003033  0.030881693  0.003152522
     0.000675719 -0.685248199  6.712600354     0.000019406  0.015527948  0.150558715

  length of vectors
     8.292050653 32.899794132  6.747486129     0.120597430  0.031042187  0.151357340

  position of ions in fractional coordinates (direct lattice)
     0.897295226  0.957242555  0.158295669
     0.748393564  0.951997750  0.426606944
     0.897892845  0.798612871  0.888254197
     0.602683555  0.457117312  0.656478279
     0.750634273  0.303675213  0.118308553
     0.247263838  0.803856893  0.119951730
     0.751383631  0.451872998  0.924949472
     0.601320278  0.298493485  0.386385362
     0.253292861  0.452069555  0.425189735
     0.098670516  0.798637338  0.388555846
     0.246539316  0.952148745  0.926563139
     0.252291123  0.303797814  0.618641195
     0.749230256  0.803709701  0.619540687
     0.097922187  0.957237867  0.657789637
     0.401221027  0.298560394  0.886941171
     0.401928472  0.457199838  0.156497734
     0.684030206  0.031877745  0.135579216
     0.825661532  0.051033236  0.469026143
     0.827246014  0.704763826  0.576918599
     0.674214281  0.550857548  0.967939342
     0.672402334  0.204653715  0.075929041
     0.312213196  0.724059866  0.411616720
     0.815667031  0.531860977  0.634351192
     0.813689993  0.223809165  0.409619967
     0.188925712  0.531892763  0.133883110
     0.171762214  0.704831601  0.077416280
     0.170023492  0.051169354  0.968339605
     0.327972597  0.204728189  0.576491789
     0.686267806  0.723772214  0.910863808
     0.310949440  0.031866961  0.634507671
     0.187525911  0.224060904  0.910651444
     0.329781395  0.551087497  0.467801270
     0.686466074  0.076210499  0.120932311
     0.815421768  0.095281118  0.454658802
     0.817304143  0.660493841  0.590910456
     0.684381308  0.595136371  0.954101531
     0.682387273  0.160408248  0.090459280
     0.311375848  0.679669721  0.425405579
     0.813240917  0.576226498  0.620283062
     0.811195089  0.179484860  0.424299277
     0.190049621  0.576279643  0.120090743
     0.183255297  0.660564153  0.091180793
     0.181467587  0.095425149  0.954346955
     0.316531569  0.160480110  0.590662550
     0.688659307  0.679407536  0.924880438
     0.309778936  0.076230178  0.620289948
     0.188420870  0.179691327  0.924834203
     0.318336861  0.595363901  0.454200317
     0.625180113  0.087917891  0.949742737
     0.875889239  0.125783451  0.609915437
     0.877677572  0.630047707  0.435296016
     0.623923179  0.625572358  0.109675981
     0.621958807  0.129898902  0.935180585
     0.373136276  0.667926639  0.596273824
     0.874477115  0.588034557  0.449318163
     0.872573337  0.167764695  0.595410750
     0.128419201  0.588004098  0.949113984
     0.123812433  0.630019407  0.935339689
     0.121928772  0.126007572  0.109906031
     0.375928117  0.129890818  0.435009664
     0.627276061  0.667584933  0.095739247
     0.371332327  0.087891183  0.449121238
     0.126630244  0.168011299  0.095848510
     0.377836805  0.625901913  0.609985687
     0.790924240  0.979209016  0.300960447
     0.791961389  0.776546831  0.745340593
     0.708974710  0.479082498  0.799236340
     0.707612457  0.276479532  0.243814719
     0.205073139  0.776674718  0.245919759
     0.295880615  0.479240010  0.299352900
     0.204025933  0.979289882  0.800539988
     0.294653956  0.276606876  0.744498261
     0.749624673  0.106598945  0.280448965
     0.751730573  0.649079142  0.764999476
     0.750133727  0.606550709  0.780109138
     0.748029117  0.149093296  0.264760708
     0.249294303  0.649236092  0.265254764
     0.252197100  0.606699900  0.280203512
     0.247622221  0.106697380  0.780210049
     0.250525120  0.149215182  0.764900942
     0.068204013  0.877966950  0.023187739
     0.927541372  0.877885801  0.522947592
     0.431460371  0.377878951  0.521600970
     0.572198652  0.377838732  0.021532388
     0.425613214  0.139220791  0.301965726
     0.918533456  0.563857071  0.326726064
     0.916739444  0.191991612  0.717707885
     0.581083764  0.063685589  0.827421226
     0.583152910  0.691756105  0.218315578
     0.574394707  0.616115748  0.242468632
     0.074078808  0.639400456  0.802454270
     0.072037674  0.116674819  0.242832618
     0.926995342  0.639497742  0.302356900
     0.083304994  0.192287436  0.218479457
     0.085146994  0.563753411  0.826330529
     0.416409566  0.692169069  0.719104686
     0.427700059  0.616525004  0.742819591
     0.572583283  0.139276408  0.802101696
     0.925419805  0.116405226  0.742911337
     0.414556442  0.063609107  0.326463345
     0.829216342  0.456651590  0.057075211
     0.174281691  0.299027494  0.486695032
     0.462176457  0.467652762  0.033512162
     0.038509148  0.788143805  0.511488181
     0.324326015  0.956981917  0.058723401
     0.461521829  0.288056217  0.009755151
     0.957679854  0.967774664  0.035602413
     0.671477256  0.798866863  0.487348750
     0.037707845  0.967676559  0.534734286
     0.542385426  0.467636698  0.533700003
     0.828768363  0.298871028  0.986480698
     0.670422036  0.956772470  0.558592838
     0.540705431  0.287985979  0.508967386
     0.175542443  0.456890845  0.557384854
     0.325092236  0.799077343  0.987832711
     0.958231900  0.788152260  0.011163394
     0.919848357  0.919339716  0.196953546
     0.827550301  0.915662097  0.361663220
     0.920079015  0.836524117  0.849536674
     0.580048678  0.419218689  0.695170116
     0.671777438  0.340054533  0.183211976
     0.167910932  0.840165356  0.184677287
     0.672222077  0.415542722  0.859977513
     0.579233961  0.336413898  0.347772087
     0.332120740  0.415693931  0.360198707
     0.075803280  0.836501254  0.349541156
     0.167597639  0.915777923  0.861757936
     0.331724641  0.340101277  0.683250489
     0.827913222  0.840110168  0.684583707
     0.075457186  0.919358441  0.696776374
     0.424036084  0.336427922  0.847947314
     0.424265595  0.419296887  0.195266667
     0.755877576  0.021924209  0.309857964
     0.757457845  0.733801607  0.736370139
     0.743920760  0.521813066  0.808453237
     0.742288647  0.233748734  0.235052767
     0.240614557  0.733986104  0.237117791
     0.260680430  0.521947519  0.308225133
     0.239269268  0.021985414  0.809052454
     0.259078393  0.233926163  0.735974419
     0.623611864  0.004944573  0.003694670
     0.892670865  0.039985006  0.612176676
     0.893962066  0.715879080  0.433748634
     0.607334134  0.539733239  0.110965094
     0.605601278  0.215692308  0.932640411
     0.371225512  0.751057837  0.544410032
     0.876025570  0.504984955  0.502138090
     0.873899124  0.250750496  0.541685141
     0.129512261  0.504920254  0.001310943
     0.104580341  0.715832404  0.934242689
     0.102592684  0.040186400  0.111355535
     0.395102929  0.215672405  0.433162397
     0.626266295  0.750656045  0.043366331
     0.370370344  0.004857742  0.502127016
     0.128474974  0.251094239  0.043222112
     0.397119573  0.540051736  0.610750618

  ion indices of the primitive-cell ions
   primitive index   ion index
                 1           1
                 2           2
                 3           3
                 4           4
                 5           5
                 6           6
                 7           7
                 8           8
                 9           9
                10          10
                11          11
                12          12
                13          13
                14          14
                15          15
                16          16
                17          17
                18          18
                19          19
                20          20
                21          21
                22          22
                23          23
                24          24
                25          25
                26          26
                27          27
                28          28
                29          29
                30          30
                31          31
                32          32
                33          33
                34          34
                35          35
                36          36
                37          37
                38          38
                39          39
                40          40
                41          41
                42          42
                43          43
                44          44
                45          45
                46          46
                47          47
                48          48
                49          49
                50          50
                51          51
                52          52
                53          53
                54          54
                55          55
                56          56
                57          57
                58          58
                59          59
                60          60
                61          61
                62          62
                63          63
                64          64
                65          65
                66          66
                67          67
                68          68
                69          69
                70          70
                71          71
                72          72
                73          73
                74          74
                75          75
                76          76
                77          77
                78          78
                79          79
                80          80
                81          81
                82          82
                83          83
                84          84
                85          85
                86          86
                87          87
                88          88
                89          89
                90          90
                91          91
                92          92
                93          93
                94          94
                95          95
                96          96
                97          97
                98          98
                99          99
               100         100
               101         101
               102         102
               103         103
               104         104
               105         105
               106         106
               107         107
               108         108
               109         109
               110         110
               111         111
               112         112
               113         113
               114         114
               115         115
               116         116
               117         117
               118         118
               119         119
               120         120
               121         121
               122         122
               123         123
               124         124
               125         125
               126         126
               127         127
               128         128
               129         129
               130         130
               131         131
               132         132
               133         133
               134         134
               135         135
               136         136
               137         137
               138         138
               139         139
               140         140
               141         141
               142         142
               143         143
               144         144
               145         145
               146         146
               147         147
               148         148
               149         149
               150         150
               151         151
               152         152
               153         153
               154         154
               155         155
               156         156

----------------------------------------------------------------------------------------

 
 

Automatic generation of k-mesh.
 generate k-points for:    3    1    4
Space group operators:
 irot       det(A)        alpha          n_x          n_y          n_z        tau_x        tau_y        tau_z
    1     1.000000     0.000000     1.000000     0.000000     0.000000     0.000000     0.000000     0.000000
 
 Subroutine IBZKPT returns following result:
 ===========================================
 
 Found      7 irreducible k-points:
 
 Following reciprocal coordinates:
            Coordinates               Weight
  0.000000  0.000000  0.000000      1.000000
  0.333333 -0.000000  0.000000      2.000000
 -0.000000  0.000000  0.250000      2.000000
  0.333333  0.000000  0.250000      2.000000
  0.333333 -0.000000 -0.250000      2.000000
 -0.000000  0.000000  0.500000      1.000000
  0.333333  0.000000  0.500000      2.000000
 
 Following cartesian coordinates:
            Coordinates               Weight
  0.000000  0.000000  0.000000      1.000000
  0.040199 -0.000003 -0.000004      2.000000
  0.000005  0.003882  0.037640      2.000000
  0.040204  0.003879  0.037635      2.000000
  0.040194 -0.003885 -0.037644      2.000000
  0.000010  0.007764  0.075279      1.000000
  0.040209  0.007761  0.075275      2.000000
 


--------------------------------------------------------------------------------------------------------




 Dimension of arrays:
   k-points           NKPTS =      7   k-points in BZ     NKDIM =      7   number of bands    NBANDS=    400
   number of dos      NEDOS =    301   number of ions     NIONS =    156
   non local maximal  LDIM  =      6   non local SUM 2l+1 LMDIM =     18
   total plane-waves  NPLWV = 400000
   max r-space proj   IRMAX =   2124   max aug-charges    IRDMAX=   6814
   dimension x,y,z NGX =    50 NGY =  200 NGZ =   40
   dimension x,y,z NGXF=   100 NGYF=  400 NGZF=   80
   support grid    NGXF=   100 NGYF=  400 NGZF=   80
   ions per type =              80   4  32  24  16
   NGX,Y,Z   is equivalent  to a cutoff of  10.02, 10.11,  9.86 a.u.
   NGXF,Y,Z  is equivalent  to a cutoff of  20.05, 20.21, 19.71 a.u.

 SYSTEM =  flex_MOF                                
 POSCAR =  Zn_H                                    

 Startparameter for this run:
   NWRITE =      2    write-flag & timer
   PREC   = normal    normal or accurate (medium, high low for compatibility)
   ISTART =      0    job   : 0-new  1-cont  2-samecut
   ICHARG =      2    charge: 1-file 2-atom 10-const
   ISPIN  =      1    spin polarized calculation?
   LNONCOLLINEAR =      F non collinear calculations
   LSORBIT =      F    spin-orbit coupling
   INIWAV =      1    electr: 0-lowe 1-rand  2-diag
   LASPH  =      F    aspherical Exc in radial PAW
   METAGGA=      F    non-selfconsistent MetaGGA calc.

 Electronic Relaxation 1
   ENCUT  =  600.0 eV  44.10 Ry    6.64 a.u.  16.56 65.71 13.48*2*pi/ulx,y,z
   ENINI  =  600.0     initial cutoff
   ENAUG  =  644.9 eV  augmentation charge cutoff
   NELM   =     80;   NELMIN=  4; NELMDL=-12     # of ELM steps 
   EDIFF  = 0.1E-05   stopping-criterion for ELM
   LREAL  =      T    real-space projection
   NLSPLINE    = F    spline interpolate recip. space projectors
   LCOMPAT=      F    compatible to vasp.4.4
   GGA_COMPAT  = T    GGA compatible to vasp.4.4-vasp.4.6
   LMAXPAW     = -100 max onsite density
   LMAXMIX     =    2 max onsite mixed and CHGCAR
   VOSKOWN=      0    Vosko Wilk Nusair interpolation
   ROPT   =   -0.00050  -0.00050  -0.00050  -0.00050
   ROPT   =   -0.00050
 Ionic relaxation
   EDIFFG = -.1E-01   stopping-criterion for IOM
   NSW    =   1000    number of steps for IOM
   NBLOCK =      1;   KBLOCK =   1000    inner block; outer block 
   IBRION =      2    ionic relax: 0-MD 1-quasi-New 2-CG
   NFREE  =      1    steps in history (QN), initial steepest desc. (CG)
   ISIF   =      4    stress and relaxation
   IWAVPR =     11    prediction:  0-non 1-charg 2-wave 3-comb
   ISYM   =      0    0-nonsym 1-usesym 2-fastsym
   LCORR  =      T    Harris-Foulkes like correction to forces

   POTIM  = 0.5000    time-step for ionic-motion
   TEIN   =    0.0    initial temperature
   TEBEG  =    0.0;   TEEND  =   0.0 temperature during run
   SMASS  =  -3.00    Nose mass-parameter (am)
   estimated Nose-frequenzy (Omega)   =  0.10E-29 period in steps = 0.13E+47 mass=  -0.157E-26a.u.
   SCALEE = 1.0000    scale energy and forces
   NPACO  =    256;   APACO  = 16.0  distance and # of slots for P.C.
   PSTRESS=    0.0 pullay stress

  Mass of Ions in am
   POMASS =  12.01 65.39  1.00 14.00 16.00
  Ionic Valenz
   ZVAL   =   4.00 12.00  1.00  5.00  6.00
  Atomic Wigner-Seitz radii
   RWIGS  =  -1.00 -1.00 -1.00 -1.00 -1.00
  virtual crystal weights 
   VCA    =   1.00  1.00  1.00  1.00  1.00
   NELECT =     616.0000    total number of electrons
   NUPDOWN=      -1.0000    fix difference up-down

 DOS related values:
   EMIN   =  10.00;   EMAX   =-10.00  energy-range for DOS
   EFERMI =   0.00
   ISMEAR =     0;   SIGMA  =   0.05  broadening in eV -4-tet -1-fermi 0-gaus

 Electronic relaxation 2 (details)
   IALGO  =     48    algorithm
   LDIAG  =      T    sub-space diagonalisation (order eigenvalues)
   LSUBROT=      F    optimize rotation matrix (better conditioning)
   TURBO    =      0    0=normal 1=particle mesh
   IRESTART =      0    0=no restart 2=restart with 2 vectors
   NREBOOT  =      0    no. of reboots
   NMIN     =      0    reboot dimension
   EREF     =   0.00    reference energy to select bands
   IMIX   =      4    mixing-type and parameters
     AMIX     =   0.40;   BMIX     =  1.00
     AMIX_MAG =   1.60;   BMIX_MAG =  1.00
     AMIN     =   0.10
     WC   =   100.;   INIMIX=   1;  MIXPRE=   1;  MAXMIX= -45

 Intra band minimization:
   WEIMIN = 0.0010     energy-eigenvalue tresh-hold
   EBREAK =  0.63E-09  absolut break condition
   DEPER  =   0.30     relativ break condition  

   TIME   =   0.40     timestep for ELM

  volume/ion in A,a.u.               =      11.55        77.97
  Fermi-wavevector in a.u.,A,eV,Ry     =   1.144593  2.162968 17.824908  1.310094
  Thomas-Fermi vector in A             =   2.281285
 
 Write flags
   LWAVE        =      T    write WAVECAR
   LDOWNSAMPLE  =      F    k-point downsampling of WAVECAR
   LCHARG       =      T    write CHGCAR
   LVTOT        =      F    write LOCPOT, total local potential
   LVHAR        =      F    write LOCPOT, Hartree potential only
   LELF         =      F    write electronic localiz. function (ELF)
   LORBIT       =      0    0 simple, 1 ext, 2 COOP (PROOUT), +10 PAW based schemes


 Dipole corrections
   LMONO  =      F    monopole corrections only (constant potential shift)
   LDIPOL =      F    correct potential (dipole corrections)
   IDIPOL =      0    1-x, 2-y, 3-z, 4-all directions 
   EPSILON=  1.0000000 bulk dielectric constant

 Exchange correlation treatment:
   GGA     =    PE    GGA type
   LEXCH   =     8    internal setting for exchange type
   VOSKOWN=      0    Vosko Wilk Nusair interpolation
   LHFCALC =     F    Hartree Fock is set to
   LHFONE  =     F    Hartree Fock one center treatment
   AEXX    =    0.0000 exact exchange contribution

 Linear response parameters
   LEPSILON=     F    determine dielectric tensor
   LRPA    =     F    only Hartree local field effects (RPA)
   LNABLA  =     F    use nabla operator in PAW spheres
   LVEL    =     F    velocity operator in full k-point grid
   LINTERFAST=   F  fast interpolation
   KINTER  =     0    interpolate to denser k-point grid
   CSHIFT  =0.1000    complex shift for real part using Kramers Kronig
   OMEGAMAX=  -1.0    maximum frequency
   DEG_THRESHOLD= 0.2000000E-02 threshold for treating states as degnerate
   RTIME   =   -0.100 relaxation time in fs
  (WPLASMAI=    0.000 imaginary part of plasma frequency in eV, 0.658/RTIME)
   DFIELD  = 0.0000000 0.0000000 0.0000000 field for delta impulse in time
 
 Orbital magnetization related:
   ORBITALMAG=     F  switch on orbital magnetization
   LCHIMAG   =     F  perturbation theory with respect to B field
   DQ        =  0.001000  dq finite difference perturbation B field
   LLRAUG    =     F  two centre corrections for induced B field



--------------------------------------------------------------------------------------------------------


 conjugate gradient relaxation of ions
 charge density and potential will be updated during run
 non-spin polarized calculation
 RMM-DIIS sequential band-by-band
 perform sub-space diagonalisation
    before iterative eigenvector-optimisation
 modified Broyden-mixing scheme, WC =      100.0
 initial mixing is a Kerker type mixing with AMIX =  0.4000 and BMIX =      1.0000
 Hartree-type preconditioning will be used
 using additional bands           92
 real space projection scheme for non local part
 use partial core corrections
 calculate Harris-corrections to forces 
   (improved forces if not selfconsistent)
 use gradient corrections 
 use of overlap-Matrix (Vanderbilt PP)
 Gauss-broadening in eV      SIGMA  =   0.05


--------------------------------------------------------------------------------------------------------


  energy-cutoff  :      600.00
  volume of cell :     1802.40
      direct lattice vectors                 reciprocal lattice vectors
     8.292050563 -0.000712770 -0.000995278     0.120597429 -0.000008888 -0.000013047
     0.002046800 32.726201276 -3.375233297     0.000003033  0.030881693  0.003152522
     0.000675719 -0.685248199  6.712600354     0.000019406  0.015527948  0.150558715

  length of vectors
     8.292050653 32.899794132  6.747486129     0.120597430  0.031042187  0.151357340


 
 k-points in units of 2pi/SCALE and weight: read from INCAR                         
   0.00000000  0.00000000  0.00000000       0.083
   0.04019914 -0.00000296 -0.00000435       0.167
   0.00000485  0.00388199  0.03763968       0.167
   0.04020399  0.00387902  0.03763533       0.167
   0.04019429 -0.00388495 -0.03764403       0.167
   0.00000970  0.00776397  0.07527936       0.083
   0.04020885  0.00776101  0.07527501       0.167
 
 k-points in reciprocal lattice and weights: read from INCAR                         
   0.00000000  0.00000000  0.00000000       0.083
   0.33333333 -0.00000000  0.00000000       0.167
  -0.00000000  0.00000000  0.25000000       0.167
   0.33333333  0.00000000  0.25000000       0.167
   0.33333333 -0.00000000 -0.25000000       0.167
  -0.00000000  0.00000000  0.50000000       0.083
   0.33333333  0.00000000  0.50000000       0.167
 
 position of ions in fractional coordinates (direct lattice) 
   0.89729523  0.95724255  0.15829567
   0.74839356  0.95199775  0.42660694
   0.89789284  0.79861287  0.88825420
   0.60268355  0.45711731  0.65647828
   0.75063427  0.30367521  0.11830855
   0.24726384  0.80385689  0.11995173
   0.75138363  0.45187300  0.92494947
   0.60132028  0.29849348  0.38638536
   0.25329286  0.45206955  0.42518974
   0.09867052  0.79863734  0.38855585
   0.24653932  0.95214874  0.92656314
   0.25229112  0.30379781  0.61864120
   0.74923026  0.80370970  0.61954069
   0.09792219  0.95723787  0.65778964
   0.40122103  0.29856039  0.88694117
   0.40192847  0.45719984  0.15649773
   0.68403021  0.03187774  0.13557922
   0.82566153  0.05103324  0.46902614
   0.82724601  0.70476383  0.57691860
   0.67421428  0.55085755  0.96793934
   0.67240233  0.20465372  0.07592904
   0.31221320  0.72405987  0.41161672
   0.81566703  0.53186098  0.63435119
   0.81368999  0.22380917  0.40961997
   0.18892571  0.53189276  0.13388311
   0.17176221  0.70483160  0.07741628
   0.17002349  0.05116935  0.96833961
   0.32797260  0.20472819  0.57649179
   0.68626781  0.72377221  0.91086381
   0.31094944  0.03186696  0.63450767
   0.18752591  0.22406090  0.91065144
   0.32978140  0.55108750  0.46780127
   0.68646607  0.07621050  0.12093231
   0.81542177  0.09528112  0.45465880
   0.81730414  0.66049384  0.59091046
   0.68438131  0.59513637  0.95410153
   0.68238727  0.16040825  0.09045928
   0.31137585  0.67966972  0.42540558
   0.81324092  0.57622650  0.62028306
   0.81119509  0.17948486  0.42429928
   0.19004962  0.57627964  0.12009074
   0.18325530  0.66056415  0.09118079
   0.18146759  0.09542515  0.95434696
   0.31653157  0.16048011  0.59066255
   0.68865931  0.67940754  0.92488044
   0.30977894  0.07623018  0.62028995
   0.18842087  0.17969133  0.92483420
   0.31833686  0.59536390  0.45420032
   0.62518011  0.08791789  0.94974274
   0.87588924  0.12578345  0.60991544
   0.87767757  0.63004771  0.43529602
   0.62392318  0.62557236  0.10967598
   0.62195881  0.12989890  0.93518058
   0.37313628  0.66792664  0.59627382
   0.87447711  0.58803456  0.44931816
   0.87257334  0.16776470  0.59541075
   0.12841920  0.58800410  0.94911398
   0.12381243  0.63001941  0.93533969
   0.12192877  0.12600757  0.10990603
   0.37592812  0.12989082  0.43500966
   0.62727606  0.66758493  0.09573925
   0.37133233  0.08789118  0.44912124
   0.12663024  0.16801130  0.09584851
   0.37783680  0.62590191  0.60998569
   0.79092424  0.97920902  0.30096045
   0.79196139  0.77654683  0.74534059
   0.70897471  0.47908250  0.79923634
   0.70761246  0.27647953  0.24381472
   0.20507314  0.77667472  0.24591976
   0.29588062  0.47924001  0.29935290
   0.20402593  0.97928988  0.80053999
   0.29465396  0.27660688  0.74449826
   0.74962467  0.10659895  0.28044897
   0.75173057  0.64907914  0.76499948
   0.75013373  0.60655071  0.78010914
   0.74802912  0.14909330  0.26476071
   0.24929430  0.64923609  0.26525476
   0.25219710  0.60669990  0.28020351
   0.24762222  0.10669738  0.78021005
   0.25052512  0.14921518  0.76490094
   0.06820401  0.87796695  0.02318774
   0.92754137  0.87788580  0.52294759
   0.43146037  0.37787895  0.52160097
   0.57219865  0.37783873  0.02153239
   0.42561321  0.13922079  0.30196573
   0.91853346  0.56385707  0.32672606
   0.91673944  0.19199161  0.71770789
   0.58108376  0.06368559  0.82742123
   0.58315291  0.69175610  0.21831558
   0.57439471  0.61611575  0.24246863
   0.07407881  0.63940046  0.80245427
   0.07203767  0.11667482  0.24283262
   0.92699534  0.63949774  0.30235690
   0.08330499  0.19228744  0.21847946
   0.08514699  0.56375341  0.82633053
   0.41640957  0.69216907  0.71910469
   0.42770006  0.61652500  0.74281959
   0.57258328  0.13927641  0.80210170
   0.92541981  0.11640523  0.74291134
   0.41455644  0.06360911  0.32646334
   0.82921634  0.45665159  0.05707521
   0.17428169  0.29902749  0.48669503
   0.46217646  0.46765276  0.03351216
   0.03850915  0.78814381  0.51148818
   0.32432601  0.95698192  0.05872340
   0.46152183  0.28805622  0.00975515
   0.95767985  0.96777466  0.03560241
   0.67147726  0.79886686  0.48734875
   0.03770784  0.96767656  0.53473429
   0.54238543  0.46763670  0.53370000
   0.82876836  0.29887103  0.98648070
   0.67042204  0.95677247  0.55859284
   0.54070543  0.28798598  0.50896739
   0.17554244  0.45689084  0.55738485
   0.32509224  0.79907734  0.98783271
   0.95823190  0.78815226  0.01116339
   0.91984836  0.91933972  0.19695355
   0.82755030  0.91566210  0.36166322
   0.92007902  0.83652412  0.84953667
   0.58004868  0.41921869  0.69517012
   0.67177744  0.34005453  0.18321198
   0.16791093  0.84016536  0.18467729
   0.67222208  0.41554272  0.85997751
   0.57923396  0.33641390  0.34777209
   0.33212074  0.41569393  0.36019871
   0.07580328  0.83650125  0.34954116
   0.16759764  0.91577792  0.86175794
   0.33172464  0.34010128  0.68325049
   0.82791322  0.84011017  0.68458371
   0.07545719  0.91935844  0.69677637
   0.42403608  0.33642792  0.84794731
   0.42426559  0.41929689  0.19526667
   0.75587758  0.02192421  0.30985796
   0.75745784  0.73380161  0.73637014
   0.74392076  0.52181307  0.80845324
   0.74228865  0.23374873  0.23505277
   0.24061456  0.73398610  0.23711779
   0.26068043  0.52194752  0.30822513
   0.23926927  0.02198541  0.80905245
   0.25907839  0.23392616  0.73597442
   0.62361186  0.00494457  0.00369467
   0.89267086  0.03998501  0.61217668
   0.89396207  0.71587908  0.43374863
   0.60733413  0.53973324  0.11096509
   0.60560128  0.21569231  0.93264041
   0.37122551  0.75105784  0.54441003
   0.87602557  0.50498496  0.50213809
   0.87389912  0.25075050  0.54168514
   0.12951226  0.50492025  0.00131094
   0.10458034  0.71583240  0.93424269
   0.10259268  0.04018640  0.11135554
   0.39510293  0.21567240  0.43316240
   0.62626630  0.75065604  0.04336633
   0.37037034  0.00485774  0.50212702
   0.12847497  0.25109424  0.04322211
   0.39711957  0.54005174  0.61075062
 
 position of ions in cartesian coordinates  (Angst):
   7.44248363 31.21780113 -2.16923444
   6.20795409 30.86240490 -0.35031744
   7.44760768 25.52625099  3.26609703
   4.99886173 14.50943303  2.86319892
   6.22499885  9.85653038 -0.23156374
   2.05205064 26.22480954 -1.90826263
   6.23206096 14.15373116  4.68289153
   4.98705020  9.50335938  1.58556689
   2.10152982 14.50297820  1.32803646
   0.82007811 25.87003874 -0.08746543
   2.04689143 30.52511002  3.00567853
   2.09305059  9.51804583  3.12705151
   6.21471883 25.87729228  1.44527560
   0.81437948 30.87594014  1.18448037
   3.32815546  9.16268673  4.94557131
   3.33385276 14.85488766 -0.49304941
   5.67216992  0.94984452  0.80181347
   6.84684856  1.34813611  2.97531421
   6.86139812 22.66832074  1.49305832
   5.59240046 17.36371575  4.63744620
   5.57606435  6.64502917 -0.18174195
   2.59064775 23.41344675  0.31883684
   6.76506952 16.97051998  2.46217935
   6.74789345  7.04315247  1.99339714
   1.56776070 17.31495181 -0.89674639
   1.42575592 23.01328904 -1.85947749
   1.41060245  1.01090443  6.32719905
   2.72037394  6.30470218  3.17842716
   5.69266425 23.06165823  3.67068162
   2.57890246  0.60786771  4.15132851
   1.55604829  6.70850630  5.35639474
   2.73600807 17.71420530  1.27978588
   5.69244910  2.41072220  0.55385883
   6.76202077  2.80605371  2.72953526
   6.77887846 21.20995150  1.73641149
   5.67678724 18.82226850  4.39509703
   5.65877922  5.18707916  0.06512257
   2.58362288 21.95127775  0.56122386
   6.74503336 18.43207686  2.21800404
   6.72712477  5.58252914  2.24154084
   1.57716175 18.77701616 -1.13914623
   1.52097584 21.55514335 -1.61768029
   1.50557859  2.46880876  6.08388696
   2.62542336  4.84692832  3.42290880
   5.71241337 21.60016428  3.91450841
   2.56927777  2.06945079  3.90615557
   1.56338810  5.24673927  5.60135471
   2.64119085 19.17253200  1.03905632
   5.18484682  2.22596348  6.07787781
   7.26358744  3.69784676  3.66869833
   7.27933053 20.32015667  0.79453666
   5.17495708 20.39700692 -1.37586260
   5.15821168  3.60982348  5.83843540
   3.09583489 21.44984011  1.74776828
   7.25271566 18.93561952  1.03046910
   7.23616794  5.08167510  3.42964097
   1.06670337 18.59267028  4.38624405
   1.02858051 19.97711385  4.15197582
   1.01137172  4.04834936  0.31232896
   3.11777476  3.95247552  2.48126005
   5.20283592 21.78146663 -1.61121990
   3.07958981  2.56832034  2.71774856
   1.05043304  5.43260131  0.07618938
   3.13473516 20.06513109  1.98164911
   6.56059140 31.83899498 -1.28561886
   6.56907696 24.90212010  2.38135859
   5.88037479 15.13036965  3.74723332
   5.86828892  8.88054684  0.70274358
   1.70223271 25.24895091 -0.97090141
   2.45464021 15.47836308  0.39159506
   1.69433870 31.49972378  2.06817013
   2.44435473  8.54191617  4.06361329
   6.21633338  3.29586708  1.52199943
   6.23523338 20.71714431  2.94359404
   6.22191541 19.31499755  3.18856413
   6.20317933  4.69729723  1.27326367
   2.06866906 21.06508797 -0.41102217
   2.09266223 19.66279432 -0.16711052
   2.05404157  2.95698591  4.87686325
   2.07818924  4.35892052  4.63058894
   0.56736381 28.71658514 -2.80776114
   7.69337018 28.37085740  0.54634564
   3.57881711 12.00880894  2.22543981
   4.74548806 12.35006352 -1.13132505
   3.52969529  4.34894280  1.55664899
   7.61790074 18.22835684  0.28911814
   7.60252776  5.79069469  4.16875731
   4.81906541  1.51678432  5.33861595
   4.83709682 22.48853350 -0.86995341
   4.76433486 19.99656736 -0.45251104
   0.61611618 20.37521488  3.22835538
   0.59774293  3.65187164  1.23616188
   7.68820548 20.72048156 -0.12977565
   0.69131043  6.14306532  0.81746741
   0.70775543 17.88320539  3.64394257
   3.45479182 22.15900228  2.49041584
   3.54827435 19.66720072  2.90490965
   4.74871660  4.00794089  4.91352788
   7.67436807  3.29976259  4.59305106
   3.43787377  1.85768054  1.97630979
   6.87687708 14.90477011 -1.15900787
   1.44609351  9.45240283  2.25752823
   3.83337038 15.28120483 -1.35394342
   0.32127860 25.44242900  0.77320820
   2.69132614 31.27791157 -2.83617330
   3.82755853  9.41997209 -0.90723385
   7.94313467 31.64650936 -3.02843366
   5.56988779 25.80944430  0.57434705
   0.31501733 31.30192526  0.32328588
   4.49880516 14.93786915  2.00359205
   6.87346748  9.10433857  5.61226638
   5.56150920 30.92827585  0.51961293
   4.48449014  9.07553273  2.44393663
   1.45691862 14.57022966  2.19921386
   2.69798431 25.47362366  3.93353019
   7.94732810 25.78489681 -2.58621606
   7.62944388 29.95087888 -1.78183108
   6.86420750 29.71772316 -0.66369618
   7.63162796 26.79345735  2.87822039
   4.81112076 13.24265770  3.25086097
   5.57123230 11.00266859  0.08139679
   1.39417038 27.36875109 -1.59625638
   5.57553108 13.00935759  4.36946268
   4.80396086 10.77082589  1.19840315
   2.75505620 13.35702100  1.01447542
   0.63051297 27.13593194 -0.47713224
   1.39218482 29.37929510  2.69350568
   2.75183530 10.66179024  3.43813616
   6.86728042 27.02391460  1.75894502
   0.62804737 29.60959085  1.57405701
   3.51739022 10.42865129  4.55598668
   3.51902192 13.58788579 -0.10489998
   6.26802933  0.50462770  2.00520105
   6.28287827 23.50940289  2.46545296
   6.17024289 16.52243805  3.66484224
   6.15573226  7.48810954  0.78811999
   1.99685062 23.85792093 -0.88593685
   2.16285190 16.86996305  0.30703804
   1.98462456  0.16492679  5.35640175
   2.14926725  7.15100489  4.15048891
   5.17103373  0.15884082  0.00749109
   7.40256745  0.88842814  3.97345019
   7.41453700 23.13014020  0.49443259
   5.03722505 17.58694709 -1.07746574
   5.02274810  6.41926806  5.53182775
   3.08012585 24.20594936  1.11904208
   7.26542123 16.18152566  1.66533840
   7.24729499  7.83429953  2.78890467
   1.07495657 16.52313123 -1.69555272
   0.86928193 22.78621268  3.85499235
   0.85086122  1.23876892  0.61174462
   3.27694760  6.76103316  2.17930814
   5.19459753 24.53595773 -2.24316174
   3.07147886 -0.18537018  3.35381335
   1.06586412  8.18765115 -0.55749674
   3.29445365 17.25504299  2.27652897
 


--------------------------------------------------------------------------------------------------------


 k-point  1 :   0.0000 0.0000 0.0000  plane waves:   60299
 k-point  2 :   0.3333-0.0000 0.0000  plane waves:   60157
 k-point  3 :  -0.0000 0.0000 0.2500  plane waves:   60153
 k-point  4 :   0.3333 0.0000 0.2500  plane waves:   60160
 k-point  5 :   0.3333-0.0000-0.2500  plane waves:   60160
 k-point  6 :  -0.0000 0.0000 0.5000  plane waves:   60108
 k-point  7 :   0.3333 0.0000 0.5000  plane waves:   60059

 maximum and minimum number of plane-waves per node :     15104    14998

 maximum number of plane-waves:     60299
 maximum index in each direction: 
   IXMAX=   16   IYMAX=   65   IZMAX=   13
   IXMIN=  -16   IYMIN=  -65   IZMIN=  -13


 real space projection operators:
  total allocation   :      11289.05 KBytes
  max/ min on nodes  :       2896.41       2746.84


 parallel 3D FFT for wavefunctions:
    minimum data exchange during FFTs selected (reduces bandwidth)
 parallel 3D FFT for charge:
    minimum data exchange during FFTs selected (reduces bandwidth)


 total amount of memory used by VASP MPI-rank0    94134. kBytes
=======================================================================

   base      :      30000. kBytes
   nonlr-proj:       5790. kBytes
   fftplans  :       5306. kBytes
   grid      :       9424. kBytes
   one-center:        606. kBytes
   wavefun   :      43008. kBytes
 
     INWAV:  cpu time    0.0002: real time    0.0002
 Broyden mixing: mesh for mixing (old mesh)
   NGX = 33   NGY =131   NGZ = 27
  (NGX  =100   NGY  =400   NGZ  = 80)
  gives a total of 116721 points

 initial charge density was supplied:
 charge density of overlapping atoms calculated
 number of electron     616.0000000 magnetization 
 keeping initial charge density in first step


--------------------------------------------------------------------------------------------------------


 Maximum index for non-local projection operator          594
 Maximum index for augmentation-charges          275 (set IRDMAX)


--------------------------------------------------------------------------------------------------------


 First call to EWALD:  gamma=   0.146
 Maximum number of real-space cells 4x 1x 5
 Maximum number of reciprocal cells 2x 7x 2

    FEWALD:  cpu time    0.0147: real time    0.0147


--------------------------------------- Iteration      1(   1)  ---------------------------------------


    POTLOK:  cpu time    0.0980: real time    0.2659
    SETDIJ:  cpu time    0.0314: real time    0.0322
    EDDIAG:  cpu time    3.3476: real time    3.4103
  RMM-DIIS:  cpu time    4.3006: real time    4.3008
    ORTHCH:  cpu time    0.8013: real time    0.8013
       DOS:  cpu time    0.0042: real time    0.0049
    --------------------------------------------
      LOOP:  cpu time    8.5832: real time    8.8157

 eigenvalue-minimisations  :  2800
 total energy-change (2. order) : 0.5958295E+04  (-0.2732456E+05)
 number of electron     616.0000000 magnetization 
 augmentation part      616.0000000 magnetization 

 Free energy of the ion-electron system (eV)
  ---------------------------------------------------
  alpha Z        PSCENC =      1071.85005554
  Ewald energy   TEWEN  =    -10201.78316736
  -Hartree energ DENC   =    -19697.54953346
  -exchange      EXHF   =         0.00000000
  -V(xc)+E(xc)   XCENC  =      2278.66687720
  PAW double counting   =     25034.14638475   -25847.60581054
  entropy T*S    EENTRO =        -0.06046570
  eigenvalues    EBANDS =       886.95103663
  atomic energy  EATOM  =     32433.67991533
  Solvation  Ediel_sol  =         0.00000000
  ---------------------------------------------------
  free energy    TOTEN  =      5958.29529238 eV

  energy without entropy =     5958.35575808  energy(sigma->0) =     5958.32552523


--------------------------------------------------------------------------------------------------------




--------------------------------------- Iteration      1(   2)  ---------------------------------------


    EDDIAG:  cpu time    3.2724: real time    3.2821
  RMM-DIIS:  cpu time    4.2607: real time    4.2608
    ORTHCH:  cpu time    0.7986: real time    0.7986
       DOS:  cpu time    0.0036: real time    0.0036
    --------------------------------------------
      LOOP:  cpu time    8.3352: real time    8.3451

 eigenvalue-minimisations  :  2800
 total energy-change (2. order) :-0.3931288E+04  (-0.6679783E+04)
 number of electron     616.0000000 magnetization 
 augmentation part      616.0000000 magnetization 

 Free energy of the ion-electron system (eV)
  ---------------------------------------------------
  alpha Z        PSCENC =      1071.85005554
  Ewald energy   TEWEN  =    -10201.78316736
  -Hartree energ DENC   =    -19697.54953346
  -exchange      EXHF   =         0.00000000
  -V(xc)+E(xc)   XCENC  =      2278.66687720
  PAW double counting   =     25034.14638475   -25847.60581054
  entropy T*S    EENTRO =        -0.03169430
  eigenvalues    EBANDS =     -3044.36577470
  atomic energy  EATOM  =     32433.67991533
  Solvation  Ediel_sol  =         0.00000000
  ---------------------------------------------------
  free energy    TOTEN  =      2027.00725245 eV

  energy without entropy =     2027.03894675  energy(sigma->0) =     2027.02309960


--------------------------------------------------------------------------------------------------------




--------------------------------------- Iteration      1(   3)  ---------------------------------------


    EDDIAG:  cpu time    3.2667: real time    3.2668
  RMM-DIIS:  cpu time    4.2562: real time    4.2563
    ORTHCH:  cpu time    0.7955: real time    0.7956
       DOS:  cpu time    0.0033: real time    0.0033
    --------------------------------------------
      LOOP:  cpu time    8.3217: real time    8.3221

 eigenvalue-minimisations  :  2800
 total energy-change (2. order) :-0.2024114E+04  (-0.2340627E+04)
 number of electron     616.0000000 magnetization 
 augmentation part      616.0000000 magnetization 

 Free energy of the ion-electron system (eV)
  ---------------------------------------------------
  alpha Z        PSCENC =      1071.85005554
  Ewald energy   TEWEN  =    -10201.78316736
  -Hartree energ DENC   =    -19697.54953346
  -exchange      EXHF   =         0.00000000
  -V(xc)+E(xc)   XCENC  =      2278.66687720
  PAW double counting   =     25034.14638475   -25847.60581054
  entropy T*S    EENTRO =        -0.03905935
  eigenvalues    EBANDS =     -5068.47237234
  atomic energy  EATOM  =     32433.67991533
  Solvation  Ediel_sol  =         0.00000000
  ---------------------------------------------------
  free energy    TOTEN  =         2.89328977 eV

  energy without entropy =        2.93234912  energy(sigma->0) =        2.91281945


--------------------------------------------------------------------------------------------------------




--------------------------------------- Iteration      1(   4)  ---------------------------------------


    EDDIAG:  cpu time    3.2630: real time    3.2631
  RMM-DIIS:  cpu time    4.2556: real time    4.2557
    ORTHCH:  cpu time    0.7987: real time    0.7987
       DOS:  cpu time    0.0038: real time    0.0038
    --------------------------------------------
      LOOP:  cpu time    8.3211: real time    8.3214

 eigenvalue-minimisations  :  2800
 total energy-change (2. order) :-0.8179812E+03  (-0.7755275E+03)
 number of electron     616.0000000 magnetization 
 augmentation part      616.0000000 magnetization 

 Free energy of the ion-electron system (eV)
  ---------------------------------------------------
  alpha Z        PSCENC =      1071.85005554
  Ewald energy   TEWEN  =    -10201.78316736
  -Hartree energ DENC   =    -19697.54953346
  -exchange      EXHF   =         0.00000000
  -V(xc)+E(xc)   XCENC  =      2278.66687720
  PAW double counting   =     25034.14638475   -25847.60581054
  entropy T*S    EENTRO =        -0.01245072
  eigenvalues    EBANDS =     -5886.48021262
  atomic energy  EATOM  =     32433.67991533
  Solvation  Ediel_sol  =         0.00000000
  ---------------------------------------------------
  free energy    TOTEN  =      -815.08794189 eV

  energy without entropy =     -815.07549117  energy(sigma->0) =     -815.08171653


--------------------------------------------------------------------------------------------------------




--------------------------------------- Iteration      1(   5)  ---------------------------------------


    EDDIAG:  cpu time    3.2629: real time    3.2640
  RMM-DIIS:  cpu time    4.2568: real time    4.2569
    ORTHCH:  cpu time    0.7954: real time    0.7954
       DOS:  cpu time    0.0029: real time    0.0028
    --------------------------------------------
      LOOP:  cpu time    8.3179: real time    8.3191

 eigenvalue-minimisations  :  2800
 total energy-change (2. order) :-0.2749148E+03  (-0.2434807E+03)
 number of electron     616.0000000 magnetization 
 augmentation part      616.0000000 magnetization 

 Free energy of the ion-electron system (eV)
  ---------------------------------------------------
  alpha Z        PSCENC =      1071.85005554
  Ewald energy   TEWEN  =    -10201.78316736
  -Hartree energ DENC   =    -19697.54953346
  -exchange      EXHF   =         0.00000000
  -V(xc)+E(xc)   XCENC  =      2278.66687720
  PAW double counting   =     25034.14638475   -25847.60581054
  entropy T*S    EENTRO =        -0.00002616
  eigenvalues    EBANDS =     -6161.40742687
  atomic energy  EATOM  =     32433.67991533
  Solvation  Ediel_sol  =         0.00000000
  ---------------------------------------------------
  free energy    TOTEN  =     -1090.00273158 eV

  energy without entropy =    -1090.00270542  energy(sigma->0) =    -1090.00271850


--------------------------------------------------------------------------------------------------------




--------------------------------------- Iteration      1(   6)  ---------------------------------------


    EDDIAG:  cpu time    3.2622: real time    3.2624
  RMM-DIIS:  cpu time    4.2567: real time    4.2568
    ORTHCH:  cpu time    0.7977: real time    0.7978
       DOS:  cpu time    0.0028: real time    0.0028
    --------------------------------------------
      LOOP:  cpu time    8.3194: real time    8.3197

 eigenvalue-minimisations  :  2800
 total energy-change (2. order) :-0.9053286E+02  (-0.7990663E+02)
 number of electron     616.0000000 magnetization 
 augmentation part      616.0000000 magnetization 

 Free energy of the ion-electron system (eV)
  ---------------------------------------------------
  alpha Z        PSCENC =      1071.85005554
  Ewald energy   TEWEN  =    -10201.78316736
  -Hartree energ DENC   =    -19697.54953346
  -exchange      EXHF   =         0.00000000
  -V(xc)+E(xc)   XCENC  =      2278.66687720
  PAW double counting   =     25034.14638475   -25847.60581054
  entropy T*S    EENTRO =        -0.00000000
  eigenvalues    EBANDS =     -6251.94031178
  atomic energy  EATOM  =     32433.67991533
  Solvation  Ediel_sol  =         0.00000000
  ---------------------------------------------------
  free energy    TOTEN  =     -1180.53559032 eV

  energy without entropy =    -1180.53559032  energy(sigma->0) =    -1180.53559032


--------------------------------------------------------------------------------------------------------




--------------------------------------- Iteration      1(   7)  ---------------------------------------


    EDDIAG:  cpu time    3.2626: real time    3.2628
  RMM-DIIS:  cpu time    4.2572: real time    4.2573
    ORTHCH:  cpu time    0.7962: real time    0.7962
       DOS:  cpu time    0.0019: real time    0.0019
    --------------------------------------------
      LOOP:  cpu time    8.3178: real time    8.3181

 eigenvalue-minimisations  :  2800
 total energy-change (2. order) :-0.3244378E+02  (-0.2901999E+02)
 number of electron     616.0000000 magnetization 
 augmentation part      616.0000000 magnetization 

 Free energy of the ion-electron system (eV)
  ---------------------------------------------------
  alpha Z        PSCENC =      1071.85005554
  Ewald energy   TEWEN  =    -10201.78316736
  -Hartree energ DENC   =    -19697.54953346
  -exchange      EXHF   =         0.00000000
  -V(xc)+E(xc)   XCENC  =      2278.66687720
  PAW double counting   =     25034.14638475   -25847.60581054
  entropy T*S    EENTRO =        -0.00000000
  eigenvalues    EBANDS =     -6284.38408843
  atomic energy  EATOM  =     32433.67991533
  Solvation  Ediel_sol  =         0.00000000
  ---------------------------------------------------
  free energy    TOTEN  =     -1212.97936697 eV

  energy without entropy =    -1212.97936697  energy(sigma->0) =    -1212.97936697


--------------------------------------------------------------------------------------------------------




--------------------------------------- Iteration      1(   8)  ---------------------------------------


    EDDIAG:  cpu time    3.2630: real time    3.2631
  RMM-DIIS:  cpu time    4.2607: real time    4.2608
    ORTHCH:  cpu time    0.7967: real time    0.7968
       DOS:  cpu time    0.0015: real time    0.0015
    --------------------------------------------
      LOOP:  cpu time    8.3219: real time    8.3222

 eigenvalue-minimisations  :  2800
 total energy-change (2. order) :-0.1202563E+02  (-0.1068976E+02)
 number of electron     616.0000000 magnetization 
 augmentation part      616.0000000 magnetization 

 Free energy of the ion-electron system (eV)
  ---------------------------------------------------
  alpha Z        PSCENC =      1071.85005554
  Ewald energy   TEWEN  =    -10201.78316736
  -Hartree energ DENC   =    -19697.54953346
  -exchange      EXHF   =         0.00000000
  -V(xc)+E(xc)   XCENC  =      2278.66687720
  PAW double counting   =     25034.14638475   -25847.60581054
  entropy T*S    EENTRO =        -0.00000000
  eigenvalues    EBANDS =     -6296.40971900
  atomic energy  EATOM  =     32433.67991533
  Solvation  Ediel_sol  =         0.00000000
  ---------------------------------------------------
  free energy    TOTEN  =     -1225.00499755 eV

[...]
   -.395E+02 -.428E+02 -.697E+02   0.248E+02 0.584E+02 0.811E+02   0.147E+02 -.156E+02 -.115E+02   -.733E-03 0.227E-02 0.717E-03
   0.262E+03 0.111E+03 -.326E+02   -.267E+03 -.132E+03 0.439E+02   0.560E+01 0.209E+02 -.113E+02   -.815E-03 -.281E-02 0.733E-03
   -.397E+02 -.422E+02 -.695E+02   0.251E+02 0.577E+02 0.809E+02   0.147E+02 -.156E+02 -.115E+02   -.735E-03 0.223E-02 0.687E-03
   -.261E+03 0.112E+03 -.327E+02   0.267E+03 -.133E+03 0.440E+02   -.558E+01 0.209E+02 -.113E+02   0.836E-03 -.279E-02 0.741E-03
   0.261E+03 -.112E+03 0.327E+02   -.267E+03 0.133E+03 -.440E+02   0.553E+01 -.209E+02 0.113E+02   -.830E-03 0.276E-02 -.753E-03
   0.262E+03 -.111E+03 0.325E+02   -.268E+03 0.132E+03 -.437E+02   0.562E+01 -.209E+02 0.113E+02   -.849E-03 0.274E-02 -.750E-03
   -.395E+02 0.430E+02 0.695E+02   0.248E+02 -.586E+02 -.810E+02   0.147E+02 0.156E+02 0.115E+02   -.735E-03 -.221E-02 -.737E-03
   0.392E+02 -.428E+02 -.694E+02   -.245E+02 0.583E+02 0.808E+02   -.148E+02 -.156E+02 -.114E+02   0.745E-03 0.224E-02 0.714E-03
   0.398E+02 0.422E+02 0.698E+02   -.252E+02 -.578E+02 -.813E+02   -.147E+02 0.156E+02 0.115E+02   0.742E-03 -.226E-02 -.719E-03
   0.773E+02 0.110E+03 -.144E+02   -.810E+02 -.110E+03 0.162E+02   0.368E+01 0.102E+00 -.180E+01   0.304E-04 -.122E-03 -.362E-03
   0.778E+02 -.109E+03 0.144E+02   -.815E+02 0.109E+03 -.162E+02   0.370E+01 -.937E-01 0.180E+01   0.435E-04 0.133E-03 0.340E-03
   -.775E+02 0.109E+03 -.142E+02   0.812E+02 -.109E+03 0.160E+02   -.366E+01 0.109E+00 -.179E+01   -.220E-04 -.147E-03 -.377E-03
   -.777E+02 -.109E+03 0.146E+02   0.814E+02 0.109E+03 -.164E+02   -.370E+01 -.930E-01 0.182E+01   -.410E-04 0.124E-03 0.366E-03
   -.779E+02 -.110E+03 0.141E+02   0.816E+02 0.110E+03 -.159E+02   -.365E+01 -.122E+00 0.176E+01   -.289E-04 0.122E-03 0.347E-03
   0.771E+02 0.109E+03 -.141E+02   -.807E+02 -.109E+03 0.159E+02   0.363E+01 0.118E+00 -.177E+01   0.219E-04 -.153E-03 -.378E-03
   -.772E+02 0.110E+03 -.142E+02   0.809E+02 -.110E+03 0.160E+02   -.366E+01 0.115E+00 -.178E+01   -.145E-04 -.839E-04 -.379E-03
   0.778E+02 -.110E+03 0.142E+02   -.815E+02 0.110E+03 -.159E+02   0.367E+01 -.121E+00 0.177E+01   0.103E-04 0.160E-03 0.382E-03
   0.150E+03 0.318E+03 0.203E+03   -.172E+03 -.353E+03 -.238E+03   0.222E+02 0.355E+02 0.353E+02   0.899E-03 -.790E-03 0.161E-02
   -.606E+02 0.157E+03 -.193E+03   0.846E+02 -.177E+03 0.236E+03   -.240E+02 0.204E+02 -.435E+02   -.880E-03 -.691E-03 -.222E-02
   -.602E+02 -.156E+03 0.193E+03   0.841E+02 0.177E+03 -.236E+03   -.239E+02 -.205E+02 0.435E+02   -.892E-03 0.696E-03 0.224E-02
   0.603E+02 0.156E+03 -.193E+03   -.843E+02 -.177E+03 0.236E+03   0.240E+02 0.205E+02 -.435E+02   0.872E-03 -.761E-03 -.221E-02
   0.604E+02 -.156E+03 0.193E+03   -.843E+02 0.177E+03 -.236E+03   0.239E+02 -.204E+02 0.436E+02   0.887E-03 0.736E-03 0.225E-02
   -.149E+03 -.317E+03 -.203E+03   0.171E+03 0.352E+03 0.239E+03   -.216E+02 -.356E+02 -.356E+02   -.878E-03 0.812E-03 -.163E-02
   -.150E+03 0.316E+03 0.203E+03   0.172E+03 -.352E+03 -.238E+03   -.221E+02 0.354E+02 0.354E+02   -.866E-03 -.882E-03 0.155E-02
   -.151E+03 -.317E+03 -.203E+03   0.173E+03 0.352E+03 0.238E+03   -.221E+02 -.355E+02 -.354E+02   -.868E-03 0.855E-03 -.156E-02
   0.149E+03 0.316E+03 0.203E+03   -.171E+03 -.352E+03 -.239E+03   0.218E+02 0.356E+02 0.355E+02   0.864E-03 -.865E-03 0.157E-02
   0.606E+02 -.156E+03 0.193E+03   -.846E+02 0.176E+03 -.236E+03   0.241E+02 -.203E+02 0.435E+02   0.891E-03 0.696E-03 0.224E-02
   0.619E+02 0.156E+03 -.192E+03   -.861E+02 -.176E+03 0.236E+03   0.242E+02 0.203E+02 -.435E+02   0.914E-03 -.668E-03 -.225E-02
   -.609E+02 -.156E+03 0.193E+03   0.849E+02 0.176E+03 -.236E+03   -.241E+02 -.203E+02 0.436E+02   -.885E-03 0.768E-03 0.221E-02
   0.151E+03 -.316E+03 -.203E+03   -.173E+03 0.351E+03 0.239E+03   0.220E+02 -.354E+02 -.355E+02   0.890E-03 0.811E-03 -.161E-02
   -.149E+03 0.318E+03 0.203E+03   0.171E+03 -.353E+03 -.238E+03   -.218E+02 0.356E+02 0.355E+02   -.906E-03 -.755E-03 0.165E-02
   0.149E+03 -.318E+03 -.203E+03   -.171E+03 0.353E+03 0.239E+03   0.216E+02 -.356E+02 -.355E+02   0.864E-03 0.859E-03 -.157E-02
   -.613E+02 0.156E+03 -.192E+03   0.855E+02 -.176E+03 0.236E+03   -.241E+02 0.204E+02 -.435E+02   -.893E-03 -.766E-03 -.223E-02
 -----------------------------------------------------------------------------------------------
   -.615E-01 -.764E-01 -.841E-01   -.341E-12 -.128E-11 0.114E-12   0.599E-01 0.128E+00 0.300E-01   0.144E-04 -.789E-04 -.235E-03
 
 
 POSITION                                       TOTAL-FORCE (eV/Angst)
 -----------------------------------------------------------------------------------
      7.44248     31.21780     -2.16923        -0.000756     -0.001411      0.000288
      6.20795     30.86240     -0.35032         0.001117     -0.001110      0.000738
      7.44761     25.52625      3.26610        -0.001193      0.000843     -0.000419
      4.99886     14.50943      2.86320         0.000853     -0.003350      0.001257
      6.22500      9.85653     -0.23156        -0.001086      0.000026      0.000054
      2.05205     26.22481     -1.90826         0.000527     -0.001143     -0.001257
      6.23206     14.15373      4.68289         0.000914      0.001115      0.001914
      4.98705      9.50336      1.58557         0.001492      0.002218     -0.001914
      2.10153     14.50298      1.32804         0.000205      0.000732      0.001413
      0.82008     25.87004     -0.08747         0.002114      0.000565     -0.001961
      2.04689     30.52511      3.00568        -0.001181     -0.000364      0.001902
      2.09305      9.51805      3.12705         0.000168     -0.000549     -0.001271
      6.21472     25.87729      1.44528         0.001860     -0.000035     -0.000425
      0.81438     30.87594      1.18448         0.001853     -0.000821      0.001661
      3.32816      9.16269      4.94557        -0.001156      0.000885     -0.001474
      3.33385     14.85489     -0.49305        -0.001402     -0.001289      0.001838
      5.67217      0.94984      0.80181        -0.000044      0.001554      0.001207
      6.84685      1.34814      2.97531        -0.000435     -0.004690     -0.000899
      6.86140     22.66832      1.49306         0.000681      0.004183     -0.001743
      5.59240     17.36372      4.63745         0.001365     -0.002330     -0.002347
      5.57606      6.64503     -0.18174         0.003936     -0.003119      0.007365
      2.59065     23.41345      0.31884         0.003965      0.002178      0.005774
      6.76507     16.97052      2.46218         0.000788     -0.000557      0.000389
      6.74789      7.04315      1.99340         0.004131      0.001499      0.005473
      1.56776     17.31495     -0.89675        -0.002868     -0.001700     -0.002016
      1.42576     23.01329     -1.85948         0.000408      0.002170     -0.001571
      1.41060      1.01090      6.32720         0.005153     -0.003288     -0.007909
      2.72037      6.30470      3.17843        -0.003623     -0.001789      0.005660
      5.69266     23.06166      3.67068        -0.003747     -0.003119      0.003866
      2.57890      0.60787      4.15133         0.002705     -0.002228     -0.000661
      1.55605      6.70851      5.35639        -0.002485     -0.000008      0.002644
      2.73601     17.71421      1.27979        -0.003388     -0.004629     -0.004011
      5.69245      2.41072      0.55386        -0.000458     -0.001965     -0.000697
      6.76202      2.80605      2.72954        -0.000157     -0.004460     -0.002045
      6.77888     21.20995      1.73641         0.000194     -0.001271      0.000201
      5.67679     18.82227      4.39510        -0.000295     -0.004871     -0.001509
      5.65878      5.18708      0.06512         0.000326      0.001465      0.000861
      2.58362     21.95128      0.56122        -0.000951     -0.001982     -0.003641
      6.74503     18.43208      2.21800         0.000977      0.000162     -0.001943
      6.72712      5.58253      2.24154        -0.000429     -0.001308     -0.002355
      1.57716     18.77702     -1.13915        -0.001150     -0.002720     -0.001975
      1.52098     21.55514     -1.61768         0.000564     -0.000372      0.000106
      1.50558      2.46881      6.08389         0.001506     -0.000533     -0.002228
      2.62542      4.84693      3.42291        -0.000468     -0.000714     -0.000226
      5.71241     21.60016      3.91451         0.000327     -0.001409     -0.001475
      2.56928      2.06945      3.90616        -0.000363     -0.001041      0.001637
      1.56339      5.24674      5.60135         0.000065     -0.001248     -0.001740
      2.64119     19.17253      1.03906        -0.002065     -0.001535     -0.002505
      5.18485      2.22596      6.07788        -0.000708      0.000416     -0.000468
      7.26359      3.69785      3.66870         0.000799      0.001215     -0.001555
      7.27933     20.32016      0.79454         0.000394      0.000508     -0.000219
      5.17496     20.39701     -1.37586         0.000047     -0.000039     -0.003363
      5.15821      3.60982      5.83844         0.000765      0.000694      0.001995
      3.09583     21.44984      1.74777         0.000740     -0.001668      0.002252
      7.25272     18.93562      1.03047         0.000367      0.002139     -0.000133
      7.23617      5.08168      3.42964         0.001042      0.000364     -0.000992
      1.06670     18.59267      4.38624        -0.000216      0.000540      0.001089
      1.02858     19.97711      4.15198         0.000532      0.003081      0.001299
      1.01137      4.04835      0.31233        -0.000764      0.001347      0.000700
      3.11777      3.95248      2.48126        -0.000707      0.000892     -0.000104
      5.20284     21.78147     -1.61122        -0.001156      0.000542     -0.001198
      3.07959      2.56832      2.71775        -0.000047      0.002527      0.001416
      1.05043      5.43260      0.07619        -0.000383     -0.000843      0.000965
      3.13474     20.06513      1.98165         0.000325      0.002556      0.000557
      6.56059     31.83899     -1.28562        -0.000757     -0.002527      0.001485
      6.56908     24.90212      2.38136        -0.001063      0.000964     -0.001381
      5.88037     15.13037      3.74723         0.003742     -0.001813      0.004198
      5.86829      8.88055      0.70274         0.002001     -0.001147     -0.001807
      1.70223     25.24895     -0.97090         0.002925      0.001346     -0.002819
      2.45464     15.47836      0.39160        -0.001836      0.001319      0.002323
      1.69434     31.49972      2.06817         0.000092      0.002156      0.000664
      2.44435      8.54192      4.06361        -0.001307      0.000511     -0.001315
      6.21633      3.29587      1.52200         0.000578      0.000425     -0.000158
      6.23523     20.71714      2.94359        -0.001670      0.002801      0.000688
      6.22192     19.31500      3.18856        -0.001800      0.002211      0.001712
      6.20318      4.69730      1.27326         0.001898      0.003568      0.000906
      2.06867     21.06509     -0.41102         0.000335      0.003280      0.001476
      2.09266     19.66279     -0.16711         0.000498      0.001382     -0.000403
      2.05404      2.95699      4.87686         0.000303      0.000320     -0.001982
      2.07819      4.35892      4.63059        -0.001794      0.002012      0.002337
      0.56736     28.71659     -2.80776        -0.000765     -0.000577     -0.001193
      7.69337     28.37086      0.54635         0.002071     -0.003396     -0.003416
      3.57882     12.00881      2.22544         0.000675      0.000663     -0.001308
      4.74549     12.35006     -1.13133        -0.003704      0.000115      0.000798
      3.52970      4.34894      1.55665         0.000154      0.002109      0.000320
      7.61790     18.22836      0.28912         0.000787      0.002517      0.000570
      7.60253      5.79069      4.16876         0.000660     -0.003422      0.000061
      4.81907      1.51678      5.33862        -0.000420      0.002607      0.000279
      4.83710     22.48853     -0.86995        -0.001005     -0.002983      0.000348
      4.76433     19.99657     -0.45251        -0.002246     -0.004219      0.001848
      0.61612     20.37521      3.22836        -0.000637      0.002809     -0.000865
      0.59774      3.65187      1.23616        -0.000178     -0.003268      0.002638
      7.68821     20.72048     -0.12978         0.001282      0.002189      0.001809
      0.69131      6.14307      0.81747         0.000205     -0.002646      0.000787
      0.70776     17.88321      3.64394        -0.000924      0.002302      0.000153
      3.45479     22.15900      2.49042         0.000423     -0.003090      0.000146
      3.54827     19.66720      2.90491        -0.000164     -0.003514      0.001571
      4.74872      4.00794      4.91353        -0.001709      0.002808     -0.000402
      7.67437      3.29976      4.59305         0.001600     -0.004012      0.000898
      3.43787      1.85768      1.97631         0.001547      0.001594     -0.000170
      6.87688     14.90477     -1.15901        -0.001788     -0.000557     -0.000654
      1.44609      9.45240      2.25753         0.000676     -0.000663     -0.001743
      3.83337     15.28120     -1.35394         0.000273      0.001566     -0.000485
      0.32128     25.44243      0.77321         0.000216     -0.000618      0.001366
      2.69133     31.27791     -2.83617        -0.000277      0.001938      0.001416
      3.82756      9.41997     -0.90723        -0.000753     -0.000434      0.000589
      7.94313     31.64651     -3.02843        -0.000480      0.000362     -0.000511
      5.56989     25.80944      0.57435         0.001699     -0.000443     -0.000542
      0.31502     31.30193      0.32329         0.000669      0.001560     -0.000119
      4.49881     14.93787      2.00359        -0.000015      0.001399     -0.001189
      6.87347      9.10434      5.61227        -0.001901      0.000140     -0.001995
      5.56151     30.92828      0.51961         0.002006     -0.001314      0.001109
      4.48449      9.07553      2.44394        -0.000481     -0.000783      0.003510
      1.45692     14.57023      2.19921         0.000346      0.001603      0.000361
      2.69798     25.47362      3.93353        -0.001027     -0.001022     -0.001402
      7.94733     25.78490     -2.58622         0.000032     -0.000969      0.002026
      7.62944     29.95088     -1.78183         0.000005     -0.001337      0.001105
      6.86421     29.71772     -0.66370         0.000677      0.002613     -0.000796
      7.63163     26.79346      2.87822         0.000297      0.000597     -0.000424
      4.81112     13.24266      3.25086        -0.002199     -0.002371     -0.000456
      5.57123     11.00267      0.08140        -0.002807     -0.000048     -0.000180
      1.39417     27.36875     -1.59626         0.000299     -0.002432     -0.000324
      5.57553     13.00936      4.36946        -0.000292      0.004885     -0.002264
      4.80396     10.77083      1.19840        -0.000176      0.002679     -0.001787
      2.75506     13.35702      1.01448        -0.001023      0.003499     -0.000807
      0.63051     27.13593     -0.47713         0.000218      0.002659     -0.001766
      1.39218     29.37930      2.69351         0.000169      0.002656     -0.001099
      2.75184     10.66179      3.43814         0.000904     -0.000271     -0.000639
      6.86728     27.02391      1.75895         0.002028     -0.002167      0.000045
      0.62805     29.60959      1.57406         0.001948     -0.000872      0.001693
      3.51739     10.42865      4.55599        -0.001546      0.000439     -0.001475
      3.51902     13.58789     -0.10490        -0.000549     -0.000654      0.001121
      6.26803      0.50463      2.00520         0.001012      0.004268      0.001218
      6.28288     23.50940      2.46545        -0.000010      0.000364      0.000373
      6.17024     16.52244      3.66484        -0.000916      0.003811      0.001950
      6.15573      7.48811      0.78812        -0.000335      0.001746      0.000150
      1.99685     23.85792     -0.88594        -0.000728     -0.000592     -0.002718
      2.16285     16.86996      0.30704        -0.000807      0.002976     -0.000500
      1.98462      0.16493      5.35640         0.000086      0.003519      0.000997
      2.14927      7.15100      4.15049         0.000573     -0.000448     -0.002820
      5.17103      0.15884      0.00749        -0.002774      0.000015     -0.001052
      7.40257      0.88843      3.97345        -0.001225     -0.000263     -0.000859
      7.41454     23.13014      0.49443        -0.000937      0.000110      0.001747
      5.03723     17.58695     -1.07747         0.001479     -0.001168     -0.000077
      5.02275      6.41927      5.53183        -0.004803      0.004134     -0.006148
      3.08013     24.20595      1.11904         0.000171     -0.005231     -0.002663
      7.26542     16.18153      1.66534         0.002559      0.001066     -0.001248
      7.24729      7.83430      2.78890        -0.000338     -0.004744     -0.004302
      1.07496     16.52313     -1.69555        -0.000944      0.005598      0.003737
      0.86928     22.78621      3.85499         0.002807      0.000159      0.001610
      0.85086      1.23877      0.61174        -0.001421     -0.002496      0.009361
      3.27695      6.76103      2.17931         0.003533      0.003036     -0.005046
      5.19460     24.53596     -2.24316        -0.002836     -0.003617     -0.001677
      3.07148     -0.18537      3.35381         0.001490      0.004474      0.003484
      1.06586      8.18765     -0.55750        -0.001915     -0.002629     -0.000900
      3.29445     17.25504      2.27653        -0.000192     -0.002026      0.004630
 -----------------------------------------------------------------------------------
    total drift:                               -0.001565      0.052033     -0.054320


--------------------------------------------------------------------------------------------------------



  FREE ENERGIE OF THE ION-ELECTRON SYSTEM (eV)
  ---------------------------------------------------
  free  energy   TOTEN  =     -1163.45223259 eV

  energy  without entropy=    -1163.45223259  energy(sigma->0) =    -1163.45223259
 


--------------------------------------------------------------------------------------------------------


    POTLOK:  cpu time    0.1249: real time    0.1249


--------------------------------------------------------------------------------------------------------




--------------------------------------------------------------------------------------------------------


  
 reached required accuracy - stopping structural energy minimisation
 writing wavefunctions
     LOOP+:  cpu time  345.4621: real time  356.4782
    4ORBIT:  cpu time    0.0000: real time    0.0000

 total amount of memory used by VASP MPI-rank0    94134. kBytes
=======================================================================

   base      :      30000. kBytes
   nonlr-proj:       5790. kBytes
   fftplans  :       5306. kBytes
   grid      :       9424. kBytes
   one-center:        606. kBytes
   wavefun   :      43008. kBytes
 
  
  
 General timing and accounting informations for this job:
 ========================================================
  
                  Total CPU time used (sec):      403.122
                            User time (sec):      368.850
                          System time (sec):       34.272
                         Elapsed time (sec):      415.199
  
                   Maximum memory used (kb):     1074672.
                   Average memory used (kb):           0.
  
                          Minor page faults:       359182
                          Major page faults:            5
                 Voluntary context switches:        10633
