       N       E                     dE             d eps       ncg     rms          rms(c)
RMM:   1     0.804931090168E+04    0.80493E+04   -0.22626E+05  1200   0.126E+03
RMM:   2     0.303493135025E+04   -0.50144E+04   -0.67478E+04  1200   0.280E+02
RMM:   3     0.932814911125E+03   -0.21021E+04   -0.28869E+04  1200   0.181E+02
RMM:   4    -0.414653985224E+03   -0.13475E+04   -0.13450E+04  1200   0.151E+02
RMM:   5    -0.961682760967E+03   -0.54703E+03   -0.48579E+03  1200   0.959E+01
RMM:   6    -0.114860862846E+04   -0.18693E+03   -0.16209E+03  1200   0.589E+01
RMM:   7    -0.120593684895E+04   -0.57328E+02   -0.53285E+02  1200   0.336E+01
RMM:   8    -0.122701161718E+04   -0.21075E+02   -0.18564E+02  1200   0.205E+01
RMM:   9    -0.123891735705E+04   -0.11906E+02   -0.11415E+02  2852   0.121E+01
RMM:  10    -0.123969758076E+04   -0.78022E+00   -0.75735E+00  3195   0.358E+00
RMM:  11    -0.123974638083E+04   -0.48800E-01   -0.40114E-01  2894   0.723E-01
RMM:  12    -0.123974880011E+04   -0.24193E-02   -0.23386E-02  3172   0.194E-01    0.577E+01
RMM:  13    -0.116786515119E+04    0.71884E+02   -0.16117E+02  2400   0.164E+01    0.321E+01
RMM:  14    -0.115295746089E+04    0.14908E+02   -0.43944E+01  2400   0.852E+00    0.148E+01
RMM:  15    -0.115139071393E+04    0.15667E+01   -0.10285E+01  2400   0.445E+00    0.498E+00
RMM:  16    -0.115116370032E+04    0.22701E+00   -0.81447E-01  2468   0.141E+00    0.142E+00
RMM:  17    -0.115113352617E+04    0.30174E-01   -0.16320E-01  2416   0.662E-01    0.496E-01
RMM:  18    -0.115112128847E+04    0.12238E-01   -0.57498E-02  2410   0.300E-01    0.287E-01
RMM:  19    -0.115111818281E+04    0.31057E-02   -0.13317E-02  2413   0.163E-01    0.149E-01
RMM:  20    -0.115112159213E+04   -0.34093E-02   -0.13030E-02  2400   0.131E-01    0.100E-01
RMM:  21    -0.115112400269E+04   -0.24106E-02   -0.55167E-03  2404   0.787E-02    0.803E-02
RMM:  22    -0.115112781656E+04   -0.38139E-02   -0.21103E-03  2400   0.569E-02    0.409E-02
RMM:  23    -0.115113009291E+04   -0.22764E-02   -0.42087E-04  2424   0.259E-02    0.288E-02
RMM:  24    -0.115113315327E+04   -0.30604E-02   -0.28768E-04  2408   0.209E-02    0.187E-02
RMM:  25    -0.115113533407E+04   -0.21808E-02   -0.23627E-04  2400   0.168E-02    0.114E-02
RMM:  26    -0.115113629625E+04   -0.96218E-03   -0.73763E-05  2284   0.860E-03    0.484E-03
RMM:  27    -0.115113667112E+04   -0.37487E-03   -0.25382E-05  2086   0.458E-03    0.284E-03
RMM:  28    -0.115113681338E+04   -0.14225E-03   -0.10100E-05  1946   0.299E-03    0.114E-03
RMM:  29    -0.115113685032E+04   -0.36941E-04   -0.22703E-06  1625   0.151E-03    0.603E-04
RMM:  30    -0.115113686484E+04   -0.14526E-04   -0.92499E-07  1430   0.983E-04    0.488E-04
RMM:  31    -0.115113686853E+04   -0.36871E-05   -0.34790E-07  1161   0.693E-04    0.353E-04
RMM:  32    -0.115113686977E+04   -0.12395E-05   -0.15756E-07  1083   0.521E-04    0.261E-04
RMM:  33    -0.115113687027E+04   -0.50205E-06   -0.66887E-08   898   0.388E-04
   1 F= -.11620004E+04 E0= -.11620004E+04  d E =-.116200E+04
