 vasp.6.0.8 29Jun18 (build Mar 14 2019 11:44:20) complex                        
  
 executed on             LinuxIFC date 2021.01.14  02:12:49
 running   64 mpi-ranks, with    1 threads/rank
 distrk:  each k-point on   64 cores,    1 groups
 distr:  one band on NCORES_PER_BAND=   4 cores,   16 groups


--------------------------------------------------------------------------------------------------------


 INCAR:
 POTCAR:    PAW_PBE C 08Apr2002                   
 POTCAR:    PAW_PBE Zn 06Sep2000                  
 POTCAR:    PAW_PBE H 15Jun2001                   
 POTCAR:    PAW_PBE N 08Apr2002                   
 POTCAR:    PAW_PBE O 08Apr2002                   
 POTCAR:    PAW_PBE C 08Apr2002                   
   VRHFIN =C: s2p2                                                              
   LEXCH  = PE                                                                  
   EATOM  =   147.1560 eV,   10.8157 Ry                                         
                                                                                
   TITEL  = PAW_PBE C 08Apr2002                                                 
   LULTRA =        F    use ultrasoft PP ?                                      
   IUNSCR =        1    unscreen: 0-lin 1-nonlin 2-no                           
   RPACOR =    1.200    partial core radius                                     
   POMASS =   12.011; ZVAL   =    4.000    mass and valenz                      
   RCORE  =    1.500    outmost cutoff radius                                   
   RWIGS  =    1.630; RWIGS  =    0.863    wigner-seitz radius (au A)           
   ENMAX  =  400.000; ENMIN  =  300.000 eV                                      
   ICORE  =        2    local potential                                         
   LCOR   =        T    correct aug charges                                     
   LPAW   =        T    paw PP                                                  
   EAUG   =  644.873                                                            
   DEXC   =    0.000                                                            
   RMAX   =    1.529    core radius for proj-oper                               
   RAUG   =    1.300    factor for augmentation sphere                          
   RDEP   =    1.501    radius for radial grids                                 
   RDEPT  =    1.300    core radius for aug-charge                              
                                                                                
   Atomic configuration                                                         
    4 entries                                                                   
     n  l   j            E        occ.                                          
     1  0  0.50      -273.3789   2.0000                                         
     2  0  0.50       -13.7508   2.0000                                         
     2  1  0.50        -5.2854   2.0000                                         
     3  2  1.50        -5.4423   0.0000                                         
   Description                                                                  
     l       E           TYP  RCUT    TYP  RCUT                                 
     0    -13.7508458     23  1.200                                             
     0     -8.2022199     23  1.200                                             
     1     -5.2854383     23  1.500                                             
     1     34.0145650     23  1.500                                             
     2     -5.4423304      7  1.500                                             
  local pseudopotential read in
  partial core-charges read in
  partial kinetic energy density read in
  atomic valenz-charges read in
  non local Contribution for L=           0  read in
    real space projection operators read in
  non local Contribution for L=           0  read in
    real space projection operators read in
  non local Contribution for L=           1  read in
    real space projection operators read in
  non local Contribution for L=           1  read in
    real space projection operators read in
    PAW grid and wavefunctions read in
 
   number of l-projection  operators is LMAX  =           4
   number of lm-projection operators is LMMAX =           8
 
 POTCAR:    PAW_PBE Zn 06Sep2000                  
   VRHFIN =Zn: d10 p2                                                           
   LEXCH  = PE                                                                  
   EATOM  =  1748.8345 eV,  128.5357 Ry                                         
                                                                                
   TITEL  = PAW_PBE Zn 06Sep2000                                                
   LULTRA =        F    use ultrasoft PP ?                                      
   IUNSCR =        1    unscreen: 0-lin 1-nonlin 2-no                           
   RPACOR =    2.000    partial core radius                                     
   POMASS =   65.390; ZVAL   =   12.000    mass and valenz                      
   RCORE  =    2.300    outmost cutoff radius                                   
   RWIGS  =    2.400; RWIGS  =    1.270    wigner-seitz radius (au A)           
   ENMAX  =  276.723; ENMIN  =  207.542 eV                                      
   RCLOC  =    1.828    cutoff for local pot                                    
   LCOR   =        T    correct aug charges                                     
   LPAW   =        T    paw PP                                                  
   EAUG   =  575.892                                                            
   DEXC   =    0.000                                                            
   RMAX   =    2.347    core radius for proj-oper                               
   RAUG   =    1.300    factor for augmentation sphere                          
   RDEP   =    2.324    radius for radial grids                                 
   RDEPT  =    1.788    core radius for aug-charge                              
                                                                                
   Atomic configuration                                                         
    9 entries                                                                   
     n  l   j            E        occ.                                          
     1  0  0.50     -9524.6913   2.0000                                         
     2  0  0.50     -1158.1882   2.0000                                         
     2  1  1.50     -1003.8506   6.0000                                         
     3  0  0.50      -129.2194   2.0000                                         
     3  1  1.50       -83.3890   6.0000                                         
     3  2  2.50       -10.1410  10.0000                                         
     4  0  0.50        -5.9785   2.0000                                         
     4  1  0.50        -4.0817   0.0000                                         
     4  3  2.50        -1.3606   0.0000                                         
   Description                                                                  
     l       E           TYP  RCUT    TYP  RCUT                                 
     2    -10.1410010     23  2.300                                             
     2    -11.5015836     23  2.300                                             
     0     -5.9785163     23  2.300                                             
     0      1.1858015     23  2.300                                             
     1     -2.7211652     23  2.300                                             
     1     13.2444212     23  2.300                                             
  local pseudopotential read in
  partial core-charges read in
  partial kinetic energy density read in
  atomic valenz-charges read in
  non local Contribution for L=           2  read in
    real space projection operators read in
  non local Contribution for L=           2  read in
    real space projection operators read in
  non local Contribution for L=           0  read in
    real space projection operators read in
  non local Contribution for L=           0  read in
    real space projection operators read in
  non local Contribution for L=           1  read in
    real space projection operators read in
  non local Contribution for L=           1  read in
    real space projection operators read in
    PAW grid and wavefunctions read in
 
   number of l-projection  operators is LMAX  =           6
   number of lm-projection operators is LMMAX =          18
 
 POTCAR:    PAW_PBE H 15Jun2001                   
   VRHFIN =H: ultrasoft test                                                    
   LEXCH  = PE                                                                  
   EATOM  =    12.4884 eV,    0.9179 Ry                                         
                                                                                
   TITEL  = PAW_PBE H 15Jun2001                                                 
   LULTRA =        F    use ultrasoft PP ?                                      
   IUNSCR =        0    unscreen: 0-lin 1-nonlin 2-no                           
   RPACOR =    0.000    partial core radius                                     
   POMASS =    1.000; ZVAL   =    1.000    mass and valenz                      
   RCORE  =    1.100    outmost cutoff radius                                   
   RWIGS  =    0.700; RWIGS  =    0.370    wigner-seitz radius (au A)           
   ENMAX  =  250.000; ENMIN  =  200.000 eV                                      
   RCLOC  =    0.701    cutoff for local pot                                    
   LCOR   =        T    correct aug charges                                     
   LPAW   =        T    paw PP                                                  
   EAUG   =  400.000                                                            
   RMAX   =    1.123    core radius for proj-oper                               
   RAUG   =    1.200    factor for augmentation sphere                          
   RDEP   =    1.112    radius for radial grids                                 
   RDEPT  =    0.926    core radius for aug-charge                              
                                                                                
   Atomic configuration                                                         
    2 entries                                                                   
     n  l   j            E        occ.                                          
     1  0  0.50        -6.4927   1.0000                                         
     2  1  0.50        -3.4015   0.0000                                         
   Description                                                                  
     l       E           TYP  RCUT    TYP  RCUT                                 
     0     -6.4927494     23  1.100                                             
     0      6.8029130     23  1.100                                             
     1     -4.0817478     23  1.100                                             
  local pseudopotential read in
  atomic valenz-charges read in
  non local Contribution for L=           0  read in
    real space projection operators read in
  non local Contribution for L=           0  read in
    real space projection operators read in
  non local Contribution for L=           1  read in
    real space projection operators read in
    PAW grid and wavefunctions read in
 
   number of l-projection  operators is LMAX  =           3
   number of lm-projection operators is LMMAX =           5
 
 POTCAR:    PAW_PBE N 08Apr2002                   
   VRHFIN =N: s2p3                                                              
   LEXCH  = PE                                                                  
   EATOM  =   264.5486 eV,   19.4438 Ry                                         
                                                                                
   TITEL  = PAW_PBE N 08Apr2002                                                 
   LULTRA =        F    use ultrasoft PP ?                                      
   IUNSCR =        1    unscreen: 0-lin 1-nonlin 2-no                           
   RPACOR =    1.200    partial core radius                                     
   POMASS =   14.001; ZVAL   =    5.000    mass and valenz                      
   RCORE  =    1.500    outmost cutoff radius                                   
   RWIGS  =    1.400; RWIGS  =    0.741    wigner-seitz radius (au A)           
   ENMAX  =  400.000; ENMIN  =  300.000 eV                                      
   ICORE  =        2    local potential                                         
   LCOR   =        T    correct aug charges                                     
   LPAW   =        T    paw PP                                                  
   EAUG   =  627.112                                                            
   DEXC   =    0.000                                                            
   RMAX   =    1.529    core radius for proj-oper                               
   RAUG   =    1.300    factor for augmentation sphere                          
   RDEP   =    1.514    radius for radial grids                                 
   RDEPT  =    1.338    core radius for aug-charge                              
                                                                                
   Atomic configuration                                                         
    4 entries                                                                   
     n  l   j            E        occ.                                          
     1  0  0.50      -384.7179   2.0000                                         
     2  0  0.50       -18.5828   2.0000                                         
     2  1  0.50        -7.0898   3.0000                                         
     3  2  1.50        -6.8029   0.0000                                         
   Description                                                                  
     l       E           TYP  RCUT    TYP  RCUT                                 
     0    -18.5828119     23  1.200                                             
     0    -13.5018863     23  1.200                                             
     1     -7.0897853     23  1.500                                             
     1      9.5240782     23  1.500                                             
     2     -6.8029130      7  1.500                                             
  local pseudopotential read in
  partial core-charges read in
  partial kinetic energy density read in
  atomic valenz-charges read in
  non local Contribution for L=           0  read in
    real space projection operators read in
  non local Contribution for L=           0  read in
    real space projection operators read in
  non local Contribution for L=           1  read in
    real space projection operators read in
  non local Contribution for L=           1  read in
    real space projection operators read in
    PAW grid and wavefunctions read in
 
   number of l-projection  operators is LMAX  =           4
   number of lm-projection operators is LMMAX =           8
 
 POTCAR:    PAW_PBE O 08Apr2002                   
   VRHFIN =O: s2p4                                                              
   LEXCH  = PE                                                                  
   EATOM  =   432.3788 eV,   31.7789 Ry                                         
                                                                                
   TITEL  = PAW_PBE O 08Apr2002                                                 
   LULTRA =        F    use ultrasoft PP ?                                      
   IUNSCR =        1    unscreen: 0-lin 1-nonlin 2-no                           
   RPACOR =    1.200    partial core radius                                     
   POMASS =   16.000; ZVAL   =    6.000    mass and valenz                      
   RCORE  =    1.520    outmost cutoff radius                                   
   RWIGS  =    1.550; RWIGS  =    0.820    wigner-seitz radius (au A)           
   ENMAX  =  400.000; ENMIN  =  300.000 eV                                      
   ICORE  =        2    local potential                                         
   LCOR   =        T    correct aug charges                                     
   LPAW   =        T    paw PP                                                  
   EAUG   =  605.392                                                            
   DEXC   =    0.000                                                            
   RMAX   =    1.553    core radius for proj-oper                               
   RAUG   =    1.300    factor for augmentation sphere                          
   RDEP   =    1.550    radius for radial grids                                 
   RDEPT  =    1.329    core radius for aug-charge                              
                                                                                
   Atomic configuration                                                         
    4 entries                                                                   
     n  l   j            E        occ.                                          
     1  0  0.50      -514.6923   2.0000                                         
     2  0  0.50       -23.9615   2.0000                                         
     2  1  0.50        -9.0305   4.0000                                         
     3  2  1.50        -9.5241   0.0000                                         
   Description                                                                  
     l       E           TYP  RCUT    TYP  RCUT                                 
     0    -23.9615318     23  1.200                                             
     0     -9.5240782     23  1.200                                             
     1     -9.0304911     23  1.520                                             
     1      8.1634956     23  1.520                                             
     2     -9.5240782      7  1.500                                             
  local pseudopotential read in
  partial core-charges read in
  partial kinetic energy density read in
  kinetic energy density of atom read in
  atomic valenz-charges read in
  non local Contribution for L=           0  read in
    real space projection operators read in
  non local Contribution for L=           0  read in
    real space projection operators read in
  non local Contribution for L=           1  read in
    real space projection operators read in
  non local Contribution for L=           1  read in
    real space projection operators read in
    PAW grid and wavefunctions read in
 
   number of l-projection  operators is LMAX  =           4
   number of lm-projection operators is LMMAX =           8
 
 Optimization of the real space projectors (new method)

 maximal supplied QI-value         = 25.13
 optimisation between [QCUT,QGAM] = [ 12.32, 24.88] = [ 42.47,173.37] Ry 
 Optimized for a Real-space Cutoff    1.06 Angstroem

   l    n(q)    QCUT    max X(q) W(low)/X(q) W(high)/X(q)  e(spline) 
   0      8    12.315   115.676    0.34E-03    0.18E-03    0.23E-06
   0      8    12.315    87.132    0.34E-03    0.18E-03    0.22E-06
   1      7    12.315     4.429    0.45E-03    0.12E-03    0.18E-06
   1      7    12.315     2.733    0.35E-03    0.97E-04    0.15E-06
 Optimization of the real space projectors (new method)

 maximal supplied QI-value         = 16.25
 optimisation between [QCUT,QGAM] = [ 12.51, 25.03] = [ 43.85,175.40] Ry 
 Optimized for a Real-space Cutoff    1.31 Angstroem

   l    n(q)    QCUT    max X(q) W(low)/X(q) W(high)/X(q)  e(spline) 
   2      9    12.514    46.356    0.36E-03    0.54E-03    0.48E-06
   2      9    12.514    41.843    0.37E-03    0.56E-03    0.49E-06
   0     10    12.514    48.958    0.13E-03    0.28E-03    0.23E-06
   0     10    12.514    32.776    0.12E-03    0.26E-03    0.22E-06
   1      9    12.514    17.787    0.44E-03    0.44E-04    0.36E-06
   1      9    12.514    14.435    0.39E-03    0.39E-04    0.32E-06
 Optimization of the real space projectors (new method)

 maximal supplied QI-value         = 34.20
 optimisation between [QCUT,QGAM] = [ 12.31, 24.97] = [ 42.46,174.58] Ry 
 Optimized for a Real-space Cutoff    1.00 Angstroem

   l    n(q)    QCUT    max X(q) W(low)/X(q) W(high)/X(q)  e(spline) 
   0      7    12.313    19.460    0.14E-03    0.42E-03    0.16E-06
   0      7    12.313    12.209    0.12E-03    0.40E-03    0.16E-06
   1      7    12.313     4.655    0.33E-03    0.59E-03    0.89E-07
 Optimization of the real space projectors (new method)

 maximal supplied QI-value         = 25.13
 optimisation between [QCUT,QGAM] = [ 12.32, 24.88] = [ 42.47,173.37] Ry 
 Optimized for a Real-space Cutoff    1.20 Angstroem

   l    n(q)    QCUT    max X(q) W(low)/X(q) W(high)/X(q)  e(spline) 
   0      9    12.315    79.467    0.14E-03    0.22E-04    0.37E-06
   0      9    12.315    66.151    0.14E-03    0.23E-04    0.36E-06
   1      8    12.315    22.077    0.30E-03    0.54E-03    0.45E-06
   1      8    12.315    15.894    0.30E-03    0.55E-03    0.45E-06
 Optimization of the real space projectors (new method)

 maximal supplied QI-value         = 24.76
 optimisation between [QCUT,QGAM] = [ 12.38, 25.00] = [ 42.90,175.06] Ry 
 Optimized for a Real-space Cutoff    1.13 Angstroem

   l    n(q)    QCUT    max X(q) W(low)/X(q) W(high)/X(q)  e(spline) 
   0      8    12.378    20.381    0.16E-03    0.54E-05    0.27E-06
   0      8    12.378    15.268    0.17E-03    0.61E-05    0.29E-06
   1      8    12.378     5.964    0.38E-03    0.23E-03    0.28E-06
   1      8    12.378     5.382    0.33E-03    0.20E-03    0.25E-06
  PAW_PBE C 08Apr2002                   :
 energy of atom  1       EATOM= -147.1560
 kinetic energy error for atom=    0.0057 (will be added to EATOM!!)
  PAW_PBE Zn 06Sep2000                  :
 energy of atom  2       EATOM=-1748.8345
 kinetic energy error for atom=    0.0020 (will be added to EATOM!!)
  PAW_PBE H 15Jun2001                   :
 energy of atom  3       EATOM=  -12.4884
 kinetic energy error for atom=    0.0004 (will be added to EATOM!!)
  PAW_PBE N 08Apr2002                   :
 energy of atom  4       EATOM= -264.5486
 kinetic energy error for atom=    0.0103 (will be added to EATOM!!)
  PAW_PBE O 08Apr2002                   :
 energy of atom  5       EATOM= -432.3788
 kinetic energy error for atom=    0.0168 (will be added to EATOM!!)
 
 
 POSCAR: Zn_H
  positions in direct lattice
  velocities in cartesian coordinates
 exchange correlation table for  LEXCH =        8
   RHO(1)=    0.500       N(1)  =     2000
   RHO(2)=  100.500       N(2)  =     4000
 


--------------------------------------------------------------------------------------------------------


 ion  position               nearest neighbor table
   1  0.940  0.970  0.168- 107 1.09 117 1.34  65 1.40
   2  0.884  0.953  0.423- 112 1.09 118 1.35  65 1.40
   3  0.939  0.785  0.875- 116 1.09 119 1.34  66 1.40
   4  0.560  0.470  0.670- 110 1.09 120 1.34  67 1.40
   5  0.616  0.303  0.122- 111 1.09 121 1.35  68 1.40
   6  0.117  0.803  0.121- 115 1.09 122 1.35  69 1.40
   7  0.616  0.453  0.924- 101 1.09 123 1.35  67 1.40
   8  0.560  0.285  0.376- 113 1.09 124 1.34  68 1.40
   9  0.383  0.453  0.425- 114 1.09 125 1.35  70 1.40
  10  0.060  0.785  0.375- 104 1.09 126 1.34  69 1.40
  11  0.116  0.953  0.923- 105 1.09 127 1.35  71 1.40
  12  0.383  0.303  0.622- 102 1.09 128 1.35  72 1.40
  13  0.883  0.803  0.621- 108 1.09 129 1.35  66 1.40
  14  0.061  0.970  0.668- 109 1.09 130 1.34  71 1.40
  15  0.440  0.286  0.877- 106 1.09 131 1.34  72 1.40
  16  0.439  0.470  0.170- 103 1.09 132 1.34  70 1.40
  17  0.813  0.015  0.088- 141 1.23 133 1.42  33 1.48
  18  0.842  0.073  0.493- 142 1.23 133 1.42  34 1.48
  19  0.841  0.683  0.552- 143 1.23 134 1.42  35 1.48
  20  0.658  0.573  0.994- 144 1.23 135 1.42  36 1.48
  21  0.659  0.183  0.052- 145 1.23 136 1.42  37 1.48
  22  0.187  0.741  0.457- 146 1.23 137 1.42  38 1.48
  23  0.687  0.515  0.589- 147 1.23 135 1.42  39 1.48
  24  0.687  0.241  0.456- 148 1.23 136 1.42  40 1.48
  25  0.313  0.515  0.090- 149 1.23 138 1.42  41 1.48
  26  0.158  0.683  0.052- 150 1.23 137 1.41  42 1.48
  27  0.158  0.073  0.993- 151 1.23 139 1.42  43 1.48
  28  0.341  0.183  0.552- 152 1.23 140 1.42  44 1.48
  29  0.813  0.741  0.957- 153 1.23 134 1.42  45 1.48
  30  0.187  0.015  0.588- 154 1.23 139 1.42  46 1.48
  31  0.313  0.241  0.957- 155 1.23 140 1.42  47 1.48
  32  0.341  0.573  0.494- 156 1.23 138 1.42  48 1.48
  33  0.773  0.058  0.084-  49 1.39  73 1.41  17 1.48
  34  0.802  0.115  0.478-  50 1.39  73 1.42  18 1.48
  35  0.802  0.640  0.566-  51 1.39  74 1.42  19 1.48
  36  0.697  0.616  0.979-  52 1.39  75 1.42  20 1.48
  37  0.698  0.140  0.066-  53 1.39  76 1.42  21 1.48
  38  0.227  0.698  0.461-  54 1.39  77 1.41  22 1.48
  39  0.727  0.558  0.585-  55 1.39  75 1.41  23 1.48
  40  0.727  0.198  0.460-  56 1.39  76 1.41  24 1.48
  41  0.273  0.558  0.085-  57 1.39  78 1.41  25 1.48
  42  0.198  0.640  0.067-  58 1.39  77 1.42  26 1.48
  43  0.198  0.115  0.979-  59 1.39  79 1.42  27 1.48
  44  0.302  0.140  0.566-  60 1.39  80 1.42  28 1.48
  45  0.773  0.698  0.961-  61 1.39  74 1.41  29 1.48
  46  0.227  0.058  0.584-  62 1.39  79 1.41  30 1.48
  47  0.273  0.198  0.961-  63 1.39  80 1.41  31 1.48
  48  0.302  0.615  0.480-  64 1.39  78 1.42  32 1.48
  49  0.740  0.051  0.888-  88 1.09  33 1.39  53 1.40
  50  0.798  0.164  0.664-  99 1.09  34 1.39  56 1.40
  51  0.797  0.592  0.380-  93 1.09  35 1.39  55 1.40
  52  0.702  0.664  0.165-  90 1.09  36 1.39  61 1.40
  53  0.702  0.092  0.879-  98 1.09  37 1.39  49 1.40
  54  0.260  0.705  0.657-  96 1.09  38 1.39  64 1.40
  55  0.760  0.551  0.389-  86 1.09  39 1.39  51 1.40
  56  0.761  0.205  0.655-  87 1.09  40 1.39  50 1.40
  57  0.239  0.551  0.890-  95 1.09  41 1.39  58 1.40
  58  0.202  0.591  0.880-  91 1.09  42 1.39  57 1.40
  59  0.202  0.164  0.165-  92 1.09  43 1.39  63 1.40
  60  0.298  0.092  0.380-  85 1.09  44 1.39  62 1.40
  61  0.739  0.705  0.156-  89 1.09  45 1.39  52 1.40
  62  0.260  0.051  0.389- 100 1.09  46 1.39  60 1.40
  63  0.239  0.205  0.156-  94 1.09  47 1.39  59 1.40
  64  0.297  0.664  0.666-  97 1.09  48 1.39  54 1.40
  65  0.887  0.985  0.296-   1 1.40   2 1.40 133 1.42
  66  0.886  0.771  0.748-   3 1.40  13 1.40 134 1.42
  67  0.613  0.485  0.797-   4 1.40   7 1.40 135 1.42
  68  0.613  0.271  0.248-   8 1.40   5 1.40 136 1.42
  69  0.113  0.771  0.248-  10 1.40   6 1.40 137 1.42
  70  0.387  0.485  0.298-  16 1.40   9 1.40 138 1.42
  71  0.113  0.985  0.796-  14 1.40  11 1.40 139 1.42
  72  0.387  0.271  0.749-  15 1.40  12 1.40 140 1.42
  73  0.769  0.107  0.276-  33 1.41  34 1.42  76 1.43
  74  0.769  0.649  0.768-  45 1.41  35 1.42  75 1.43
  75  0.731  0.607  0.777-  39 1.41  36 1.42  74 1.43
  76  0.731  0.149  0.267-  40 1.41  37 1.42  73 1.43
  77  0.231  0.649  0.269-  38 1.41  42 1.42  78 1.43
  78  0.269  0.607  0.278-  41 1.41  48 1.42  77 1.43
  79  0.231  0.107  0.777-  46 1.41  43 1.42  80 1.43
  80  0.269  0.149  0.768-  47 1.41  44 1.42  79 1.43
  81  0.029  0.878  0.021- 127 1.96 122 1.96 119 2.03 117 2.03
  82  0.971  0.878  0.521- 118 1.96 129 1.96 126 2.03 130 2.03
  83  0.471  0.378  0.523- 128 1.96 125 1.96 120 2.03 124 2.03
  84  0.528  0.378  0.023- 121 1.96 123 1.96 131 2.03 132 2.03
  85  0.324  0.087  0.227-  60 1.09
  86  0.756  0.513  0.244-  55 1.09
  87  0.757  0.243  0.801-  56 1.09
  88  0.743  0.012  0.743-  49 1.09
  89  0.743  0.744  0.302-  61 1.09
  90  0.676  0.670  0.318-  52 1.09
  91  0.176  0.586  0.727-  58 1.09
  92  0.176  0.169  0.318-  59 1.09
  93  0.823  0.587  0.227-  51 1.09
  94  0.243  0.243  0.302-  63 1.09
  95  0.243  0.512  0.744-  57 1.09
  96  0.256  0.743  0.802-  54 1.09
  97  0.324  0.669  0.819-  64 1.09
  98  0.676  0.086  0.727-  53 1.09
  99  0.824  0.169  0.817-  50 1.09
 100  0.257  0.013  0.243-  62 1.09
 101  0.649  0.452  0.051-   7 1.09
 102  0.351  0.304  0.496-  12 1.09
 103  0.458  0.485  0.046-  16 1.09
 104  0.041  0.771  0.498-  10 1.09
 105  0.149  0.952  0.050-  11 1.09
 106  0.459  0.271  1.000-  15 1.09
 107  0.959  0.985  0.044-   1 1.09
 108  0.851  0.804  0.494-  13 1.09
 109  0.042  0.984  0.544-  14 1.09
 110  0.541  0.485  0.546-   4 1.09
 111  0.649  0.304  0.995-   5 1.09
 112  0.851  0.952  0.550-   2 1.09
 113  0.541  0.271  0.500-   8 1.09
 114  0.351  0.452  0.552-   9 1.09
 115  0.149  0.803  0.994-   6 1.09
 116  0.958  0.771  0.998-   3 1.09
 117  0.967  0.931  0.216-   1 1.34 118 1.37  81 2.03
 118  0.932  0.920  0.371-   2 1.35 117 1.37  82 1.96
 119  0.966  0.824  0.827-   3 1.34 129 1.37  81 2.03
 120  0.533  0.431  0.718-   4 1.34 123 1.37  83 2.03
 121  0.568  0.335  0.174-   5 1.35 124 1.37  84 1.96
 122  0.068  0.835  0.172-   6 1.35 126 1.37  81 1.96
 123  0.568  0.420  0.873-   7 1.35 120 1.37  84 1.96
 124  0.533  0.324  0.328-   8 1.34 121 1.37  83 2.03
 125  0.432  0.420  0.373-   9 1.35 132 1.37  83 1.96
 126  0.033  0.824  0.326-  10 1.34 122 1.37  82 2.03
 127  0.068  0.920  0.871-  11 1.35 130 1.37  81 1.96
 128  0.432  0.336  0.674-  12 1.35 131 1.37  83 1.96
 129  0.932  0.835  0.672-  13 1.35 119 1.37  82 1.96
 130  0.034  0.931  0.716-  14 1.34 127 1.37  82 2.03
 131  0.467  0.324  0.829-  15 1.34 128 1.37  84 2.03
 132  0.466  0.431  0.218-  16 1.34 125 1.37  84 2.03
 133  0.846  0.025  0.293-  18 1.42  17 1.42  65 1.42
 134  0.845  0.731  0.751-  19 1.42  29 1.42  66 1.42
 135  0.654  0.525  0.794-  20 1.42  23 1.42  67 1.42
 136  0.655  0.231  0.251-  21 1.42  24 1.42  68 1.42
 137  0.154  0.731  0.251-  26 1.41  22 1.42  69 1.42
 138  0.345  0.525  0.295-  32 1.42  25 1.42  70 1.42
 139  0.154  0.025  0.793-  27 1.42  30 1.42  71 1.42
 140  0.345  0.231  0.752-  28 1.42  31 1.42  72 1.42
 141  0.819  0.972  0.923-  17 1.23
 142  0.869  0.077  0.667-  18 1.23
 143  0.869  0.678  0.377-  19 1.23
 144  0.630  0.578  0.168-  20 1.23
 145  0.631  0.178  0.877-  21 1.23
 146  0.181  0.784  0.621-  22 1.23
 147  0.681  0.472  0.424-  23 1.23
 148  0.681  0.284  0.621-  24 1.23
 149  0.319  0.472  0.925-  25 1.23
 150  0.131  0.678  0.878-  26 1.23
 151  0.131  0.077  0.167-  27 1.23
 152  0.369  0.178  0.378-  28 1.23
 153  0.819  0.784  0.121-  29 1.23
 154  0.181  0.972  0.423-  30 1.23
 155  0.319  0.284  0.122-  31 1.23
 156  0.369  0.578  0.669-  32 1.23
 

IMPORTANT INFORMATION: All symmetrisations will be switched off!
NOSYMM: (Re-)initialisation of all symmetry stuff for point group C_1.


----------------------------------------------------------------------------------------

                                     Primitive cell                                     

  volume of cell :    3513.1787

  direct lattice vectors                    reciprocal lattice vectors
    22.266269050 -0.000502539  0.004220347     0.044910985 -0.000007137 -0.000018012
     0.001828797 26.363589728 -5.886602607    -0.000000445  0.039505427  0.007050736
     0.002323081 -1.112467262  6.233178802    -0.000030828  0.037308858  0.167090499

  length of vectors
    22.266269456 27.012792468  6.331674880     0.044910989  0.040129686  0.171205101

  position of ions in fractional coordinates (direct lattice)
     0.939622079  0.970106950  0.167734884
     0.883554906  0.952780586  0.423085843
     0.939357746  0.785490723  0.875208248
     0.560227017  0.470316628  0.669610167
     0.616480603  0.302984507  0.121514661
     0.116512542  0.802845302  0.120689032
     0.616356657  0.452945414  0.924471912
     0.560353180  0.285487303  0.376266872
     0.383397907  0.452804953  0.424756269
     0.060137896  0.785286883  0.374639131
     0.116475548  0.952640062  0.922942794
     0.383416864  0.303084902  0.622443361
     0.883250410  0.803090449  0.620900491
     0.060509897  0.970024604  0.667692827
     0.439568413  0.285553362  0.876835034
     0.439456838  0.470277608  0.169786448
     0.813298827  0.014790658  0.087778312
     0.841536453  0.072608118  0.492502331
     0.841054974  0.683273233  0.551683847
     0.658230359  0.572839954  0.993771232
     0.658619690  0.183116616  0.051566284
     0.186547106  0.740899072  0.456608752
     0.686532819  0.514970201  0.589040322
     0.686796533  0.240928678  0.456309516
     0.313064331  0.514762985  0.089534369
     0.158441606  0.682959282  0.051894686
     0.158456413  0.072542862  0.993033313
     0.341324280  0.183268739  0.552371804
     0.812877730  0.741137226  0.956555315
     0.186740424  0.014832057  0.588060310
     0.313101588  0.240988587  0.957370381
     0.341218490  0.572666523  0.494328160
     0.773014983  0.058073337  0.083720879
     0.802225635  0.115478320  0.478112631
     0.801677012  0.640459324  0.566107008
     0.697496482  0.615712387  0.979145043
     0.697986659  0.140269527  0.065718114
     0.226800269  0.697632417  0.461063892
     0.726746073  0.558267105  0.584693043
     0.727163343  0.197680709  0.460152970
     0.272738030  0.557996053  0.085296876
     0.197746022  0.640135979  0.066578984
     0.197745714  0.115444854  0.978792107
     0.301957232  0.140407652  0.566409556
     0.772509315  0.697904446  0.960643275
     0.226995657  0.058145079  0.584148212
     0.272762886  0.197710831  0.961108498
     0.301801720  0.615463900  0.479799420
     0.739639239  0.050636426  0.888408244
     0.797957709  0.164143144  0.664423656
     0.797396448  0.591804143  0.379762291
     0.701746178  0.664390233  0.165385632
     0.702295067  0.091624274  0.879283346
     0.260118213  0.705106697  0.656531098
     0.760108461  0.550814769  0.389194558
     0.760590682  0.205125779  0.655340640
     0.239460570  0.550524833  0.889736592
     0.202125251  0.591480375  0.880264561
     0.201994869  0.164067427  0.165329733
     0.297656989  0.091812364  0.379734047
     0.739098563  0.705359678  0.156037698
     0.260355074  0.050788713  0.388745011
     0.239332877  0.205085258  0.156358889
     0.297439495  0.664141240  0.666011578
     0.886753587  0.984983512  0.295751573
     0.886382766  0.770834608  0.748024970
     0.613095888  0.485187245  0.797329010
     0.613259533  0.270685704  0.248436189
     0.113188405  0.770581171  0.247740553
     0.386560624  0.485065875  0.297660636
     0.113315010  0.984903761  0.795867422
     0.386633939  0.270803072  0.749425369
     0.769092401  0.107078184  0.276428051
     0.768566683  0.648893818  0.767967400
     0.730619019  0.607294978  0.777290973
     0.731104014  0.148681319  0.267394350
     0.230774006  0.648594981  0.268508771
     0.268739167  0.607014621  0.277910375
     0.230881279  0.107113862  0.777039670
     0.268842216  0.148750620  0.768169111
     0.028566315  0.877654086  0.021018343
     0.971364898  0.877725562  0.521216705
     0.471414013  0.377897739  0.523223319
     0.528495070  0.377921716  0.023222838
     0.323757120  0.086597110  0.226910752
     0.756327761  0.512627431  0.243557310
     0.756787742  0.243301803  0.801056126
     0.743468059  0.012470156  0.742650510
     0.742879685  0.743537335  0.301737314
     0.675626404  0.669691067  0.318248831
     0.176077705  0.586177839  0.727356096
     0.175868568  0.169318121  0.318130790
     0.823494283  0.586521231  0.226882882
     0.243107262  0.243234528  0.302200044
     0.243367423  0.512359891  0.744043787
     0.256269511  0.743294776  0.802136353
     0.323527740  0.669486267  0.818871894
     0.676166368  0.086342027  0.726581289
     0.824107739  0.169448513  0.817107677
     0.256563062  0.012641437  0.242879877
     0.648861174  0.452384230  0.051427980
     0.350887200  0.303711616  0.495675874
     0.458407611  0.484751644  0.046329375
     0.041006783  0.770758108  0.497632907
     0.148901409  0.952064614  0.050152035
     0.458595327  0.271032985  0.999978438
     0.958598453  0.984530382  0.044149891
     0.850727456  0.803775015  0.494208240
     0.041584052  0.984482970  0.544205619
     0.541208188  0.484741378  0.546164607
     0.648985386  0.303600306  0.994502454
     0.851076607  0.952242036  0.550297739
     0.541336400  0.270972331  0.499503327
     0.350908233  0.452170452  0.551788242
     0.149143518  0.803496734  0.994152592
     0.958332541  0.770959438  0.998392895
     0.966617776  0.931210726  0.215980432
     0.931890239  0.920284918  0.371011411
     0.966471727  0.824310174  0.826731293
     0.533306232  0.431375814  0.717798936
     0.568131605  0.335467626  0.173668659
     0.068070376  0.835213665  0.171867335
     0.568062415  0.420417476  0.872549700
     0.533372508  0.324436894  0.328355922
     0.431774103  0.420352689  0.372662765
     0.033167315  0.824150004  0.326112443
     0.068182931  0.920104380  0.870517847
     0.431798793  0.335504542  0.674109971
     0.931724139  0.835401543  0.672295435
     0.033519174  0.931067967  0.715550765
     0.466572908  0.324453793  0.828588536
     0.466493126  0.431373784  0.217857899
     0.845562799  0.025036239  0.292926915
     0.845096815  0.730864995  0.751161287
     0.654243735  0.525250644  0.794294359
     0.654508242  0.230660435  0.251211159
     0.154382525  0.730582715  0.251186435
     0.345291795  0.525067793  0.294814213
     0.154478609  0.025004192  0.793290090
     0.345405924  0.230769553  0.752217562
     0.818946106  0.971964787  0.923014294
     0.869444110  0.077433687  0.666719057
     0.869050233  0.678367447  0.377459789
     0.630336094  0.577688507  0.168158624
     0.630691198  0.178266322  0.877383929
     0.180836467  0.783759952  0.621126637
     0.680964071  0.472102629  0.424465478
     0.681086230  0.283733239  0.621134435
     0.318793303  0.471937220  0.924812073
     0.130541610  0.678034240  0.877560763
     0.130540102  0.077299631  0.167263946
     0.369261795  0.178483838  0.378173567
     0.818658237  0.783915592  0.121430374
     0.181119620  0.972043914  0.423108001
     0.318778704  0.283769101  0.122319148
     0.369154904  0.577556292  0.668562814

  ion indices of the primitive-cell ions
   primitive index   ion index
                 1           1
                 2           2
                 3           3
                 4           4
                 5           5
                 6           6
                 7           7
                 8           8
                 9           9
                10          10
                11          11
                12          12
                13          13
                14          14
                15          15
                16          16
                17          17
                18          18
                19          19
                20          20
                21          21
                22          22
                23          23
                24          24
                25          25
                26          26
                27          27
                28          28
                29          29
                30          30
                31          31
                32          32
                33          33
                34          34
                35          35
                36          36
                37          37
                38          38
                39          39
                40          40
                41          41
                42          42
                43          43
                44          44
                45          45
                46          46
                47          47
                48          48
                49          49
                50          50
                51          51
                52          52
                53          53
                54          54
                55          55
                56          56
                57          57
                58          58
                59          59
                60          60
                61          61
                62          62
                63          63
                64          64
                65          65
                66          66
                67          67
                68          68
                69          69
                70          70
                71          71
                72          72
                73          73
                74          74
                75          75
                76          76
                77          77
                78          78
                79          79
                80          80
                81          81
                82          82
                83          83
                84          84
                85          85
                86          86
                87          87
                88          88
                89          89
                90          90
                91          91
                92          92
                93          93
                94          94
                95          95
                96          96
                97          97
                98          98
                99          99
               100         100
               101         101
               102         102
               103         103
               104         104
               105         105
               106         106
               107         107
               108         108
               109         109
               110         110
               111         111
               112         112
               113         113
               114         114
               115         115
               116         116
               117         117
               118         118
               119         119
               120         120
               121         121
               122         122
               123         123
               124         124
               125         125
               126         126
               127         127
               128         128
               129         129
               130         130
               131         131
               132         132
               133         133
               134         134
               135         135
               136         136
               137         137
               138         138
               139         139
               140         140
               141         141
               142         142
               143         143
               144         144
               145         145
               146         146
               147         147
               148         148
               149         149
               150         150
               151         151
               152         152
               153         153
               154         154
               155         155
               156         156

----------------------------------------------------------------------------------------

 
 

Automatic generation of k-mesh.
 generate k-points for:    1    1    4
Space group operators:
 irot       det(A)        alpha          n_x          n_y          n_z        tau_x        tau_y        tau_z
    1     1.000000     0.000000     1.000000     0.000000     0.000000     0.000000     0.000000     0.000000
 
 Subroutine IBZKPT returns following result:
 ===========================================
 
 Found      3 irreducible k-points:
 
 Following reciprocal coordinates:
            Coordinates               Weight
  0.000000  0.000000  0.000000      1.000000
 -0.000000  0.000000  0.250000      2.000000
 -0.000000  0.000000  0.500000      1.000000
 
 Following cartesian coordinates:
            Coordinates               Weight
  0.000000  0.000000  0.000000      1.000000
 -0.000008  0.009327  0.041773      2.000000
 -0.000015  0.018654  0.083545      1.000000
 


--------------------------------------------------------------------------------------------------------




 Dimension of arrays:
   k-points           NKPTS =      3   k-points in BZ     NKDIM =      3   number of bands    NBANDS=    400
   number of dos      NEDOS =    301   number of ions     NIONS =    156
   non local maximal  LDIM  =      6   non local SUM 2l+1 LMDIM =     18
   total plane-waves  NPLWV = 907200
   max r-space proj   IRMAX =   2463   max aug-charges    IRDMAX=   7895
   dimension x,y,z NGX =   140 NGY =  162 NGZ =   40
   dimension x,y,z NGXF=   280 NGYF=  324 NGZF=   80
   support grid    NGXF=   280 NGYF=  324 NGZF=   80
   ions per type =              80   4  32  24  16
   NGX,Y,Z   is equivalent  to a cutoff of  10.45,  9.97, 10.50 a.u.
   NGXF,Y,Z  is equivalent  to a cutoff of  20.91, 19.94, 21.00 a.u.

 SYSTEM =  flex_MOF                                
 POSCAR =  Zn_H                                    

 Startparameter for this run:
   NWRITE =      2    write-flag & timer
   PREC   = normal    normal or accurate (medium, high low for compatibility)
   ISTART =      0    job   : 0-new  1-cont  2-samecut
   ICHARG =      2    charge: 1-file 2-atom 10-const
   ISPIN  =      1    spin polarized calculation?
   LNONCOLLINEAR =      F non collinear calculations
   LSORBIT =      F    spin-orbit coupling
   INIWAV =      1    electr: 0-lowe 1-rand  2-diag
   LASPH  =      F    aspherical Exc in radial PAW
   METAGGA=      F    non-selfconsistent MetaGGA calc.

 Electronic Relaxation 1
   ENCUT  =  600.0 eV  44.10 Ry    6.64 a.u.  44.47 53.95 12.65*2*pi/ulx,y,z
   ENINI  =  600.0     initial cutoff
   ENAUG  =  644.9 eV  augmentation charge cutoff
   NELM   =     80;   NELMIN=  4; NELMDL=-12     # of ELM steps 
   EDIFF  = 0.1E-05   stopping-criterion for ELM
   LREAL  =      T    real-space projection
   NLSPLINE    = F    spline interpolate recip. space projectors
   LCOMPAT=      F    compatible to vasp.4.4
   GGA_COMPAT  = T    GGA compatible to vasp.4.4-vasp.4.6
   LMAXPAW     = -100 max onsite density
   LMAXMIX     =    2 max onsite mixed and CHGCAR
   VOSKOWN=      0    Vosko Wilk Nusair interpolation
   ROPT   =   -0.00050  -0.00050  -0.00050  -0.00050
   ROPT   =   -0.00050
 Ionic relaxation
   EDIFFG = -.1E-01   stopping-criterion for IOM
   NSW    =   1000    number of steps for IOM
   NBLOCK =      1;   KBLOCK =   1000    inner block; outer block 
   IBRION =      2    ionic relax: 0-MD 1-quasi-New 2-CG
   NFREE  =      1    steps in history (QN), initial steepest desc. (CG)
   ISIF   =      4    stress and relaxation
   IWAVPR =     11    prediction:  0-non 1-charg 2-wave 3-comb
   ISYM   =      0    0-nonsym 1-usesym 2-fastsym
   LCORR  =      T    Harris-Foulkes like correction to forces

   POTIM  = 0.5000    time-step for ionic-motion
   TEIN   =    0.0    initial temperature
   TEBEG  =    0.0;   TEEND  =   0.0 temperature during run
   SMASS  =  -3.00    Nose mass-parameter (am)
   estimated Nose-frequenzy (Omega)   =  0.10E-29 period in steps = 0.13E+47 mass=  -0.113E-25a.u.
   SCALEE = 1.0000    scale energy and forces
   NPACO  =    256;   APACO  = 16.0  distance and # of slots for P.C.
   PSTRESS=    0.0 pullay stress

  Mass of Ions in am
   POMASS =  12.01 65.39  1.00 14.00 16.00
  Ionic Valenz
   ZVAL   =   4.00 12.00  1.00  5.00  6.00
  Atomic Wigner-Seitz radii
   RWIGS  =  -1.00 -1.00 -1.00 -1.00 -1.00
  virtual crystal weights 
   VCA    =   1.00  1.00  1.00  1.00  1.00
   NELECT =     616.0000    total number of electrons
   NUPDOWN=      -1.0000    fix difference up-down

 DOS related values:
   EMIN   =  10.00;   EMAX   =-10.00  energy-range for DOS
   EFERMI =   0.00
   ISMEAR =     0;   SIGMA  =   0.05  broadening in eV -4-tet -1-fermi 0-gaus

 Electronic relaxation 2 (details)
   IALGO  =     48    algorithm
   LDIAG  =      T    sub-space diagonalisation (order eigenvalues)
   LSUBROT=      F    optimize rotation matrix (better conditioning)
   TURBO    =      0    0=normal 1=particle mesh
   IRESTART =      0    0=no restart 2=restart with 2 vectors
   NREBOOT  =      0    no. of reboots
   NMIN     =      0    reboot dimension
   EREF     =   0.00    reference energy to select bands
   IMIX   =      4    mixing-type and parameters
     AMIX     =   0.40;   BMIX     =  1.00
     AMIX_MAG =   1.60;   BMIX_MAG =  1.00
     AMIN     =   0.10
     WC   =   100.;   INIMIX=   1;  MIXPRE=   1;  MAXMIX= -45

 Intra band minimization:
   WEIMIN = 0.0010     energy-eigenvalue tresh-hold
   EBREAK =  0.63E-09  absolut break condition
   DEPER  =   0.30     relativ break condition  

   TIME   =   0.40     timestep for ELM

  volume/ion in A,a.u.               =      22.52       151.97
  Fermi-wavevector in a.u.,A,eV,Ry     =   0.916294  1.731545 11.423387  0.839595
  Thomas-Fermi vector in A             =   2.041133
 
 Write flags
   LWAVE        =      T    write WAVECAR
   LDOWNSAMPLE  =      F    k-point downsampling of WAVECAR
   LCHARG       =      T    write CHGCAR
   LVTOT        =      F    write LOCPOT, total local potential
   LVHAR        =      F    write LOCPOT, Hartree potential only
   LELF         =      F    write electronic localiz. function (ELF)
   LORBIT       =      0    0 simple, 1 ext, 2 COOP (PROOUT), +10 PAW based schemes


 Dipole corrections
   LMONO  =      F    monopole corrections only (constant potential shift)
   LDIPOL =      F    correct potential (dipole corrections)
   IDIPOL =      0    1-x, 2-y, 3-z, 4-all directions 
   EPSILON=  1.0000000 bulk dielectric constant

 Exchange correlation treatment:
   GGA     =    PE    GGA type
   LEXCH   =     8    internal setting for exchange type
   VOSKOWN=      0    Vosko Wilk Nusair interpolation
   LHFCALC =     F    Hartree Fock is set to
   LHFONE  =     F    Hartree Fock one center treatment
   AEXX    =    0.0000 exact exchange contribution

 Linear response parameters
   LEPSILON=     F    determine dielectric tensor
   LRPA    =     F    only Hartree local field effects (RPA)
   LNABLA  =     F    use nabla operator in PAW spheres
   LVEL    =     F    velocity operator in full k-point grid
   LINTERFAST=   F  fast interpolation
   KINTER  =     0    interpolate to denser k-point grid
   CSHIFT  =0.1000    complex shift for real part using Kramers Kronig
   OMEGAMAX=  -1.0    maximum frequency
   DEG_THRESHOLD= 0.2000000E-02 threshold for treating states as degnerate
   RTIME   =   -0.100 relaxation time in fs
  (WPLASMAI=    0.000 imaginary part of plasma frequency in eV, 0.658/RTIME)
   DFIELD  = 0.0000000 0.0000000 0.0000000 field for delta impulse in time
 
 Orbital magnetization related:
   ORBITALMAG=     F  switch on orbital magnetization
   LCHIMAG   =     F  perturbation theory with respect to B field
   DQ        =  0.001000  dq finite difference perturbation B field
   LLRAUG    =     F  two centre corrections for induced B field



--------------------------------------------------------------------------------------------------------


 conjugate gradient relaxation of ions
 charge density and potential will be updated during run
 non-spin polarized calculation
 RMM-DIIS sequential band-by-band
 perform sub-space diagonalisation
    before iterative eigenvector-optimisation
 modified Broyden-mixing scheme, WC =      100.0
 initial mixing is a Kerker type mixing with AMIX =  0.4000 and BMIX =      1.0000
 Hartree-type preconditioning will be used
 using additional bands           92
 real space projection scheme for non local part
 use partial core corrections
 calculate Harris-corrections to forces 
   (improved forces if not selfconsistent)
 use gradient corrections 
 use of overlap-Matrix (Vanderbilt PP)
 Gauss-broadening in eV      SIGMA  =   0.05


--------------------------------------------------------------------------------------------------------


  energy-cutoff  :      600.00
  volume of cell :     3513.18
      direct lattice vectors                 reciprocal lattice vectors
    22.266269050 -0.000502539  0.004220347     0.044910985 -0.000007137 -0.000018012
     0.001828797 26.363589728 -5.886602607    -0.000000445  0.039505427  0.007050736
     0.002323081 -1.112467262  6.233178802    -0.000030828  0.037308858  0.167090499

  length of vectors
    22.266269456 27.012792468  6.331674880     0.044910989  0.040129686  0.171205101


 
 k-points in units of 2pi/SCALE and weight: read from INCAR                         
   0.00000000  0.00000000  0.00000000       0.250
  -0.00000771  0.00932721  0.04177262       0.500
  -0.00001541  0.01865443  0.08354525       0.250
 
 k-points in reciprocal lattice and weights: read from INCAR                         
   0.00000000  0.00000000  0.00000000       0.250
  -0.00000000  0.00000000  0.25000000       0.500
  -0.00000000  0.00000000  0.50000000       0.250
 
 position of ions in fractional coordinates (direct lattice) 
   0.93962208  0.97010695  0.16773488
   0.88355491  0.95278059  0.42308584
   0.93935775  0.78549072  0.87520825
   0.56022702  0.47031663  0.66961017
   0.61648060  0.30298451  0.12151466
   0.11651254  0.80284530  0.12068903
   0.61635666  0.45294541  0.92447191
   0.56035318  0.28548730  0.37626687
   0.38339791  0.45280495  0.42475627
   0.06013790  0.78528688  0.37463913
   0.11647555  0.95264006  0.92294279
   0.38341686  0.30308490  0.62244336
   0.88325041  0.80309045  0.62090049
   0.06050990  0.97002460  0.66769283
   0.43956841  0.28555336  0.87683503
   0.43945684  0.47027761  0.16978645
   0.81329883  0.01479066  0.08777831
   0.84153645  0.07260812  0.49250233
   0.84105497  0.68327323  0.55168385
   0.65823036  0.57283995  0.99377123
   0.65861969  0.18311662  0.05156628
   0.18654711  0.74089907  0.45660875
   0.68653282  0.51497020  0.58904032
   0.68679653  0.24092868  0.45630952
   0.31306433  0.51476298  0.08953437
   0.15844161  0.68295928  0.05189469
   0.15845641  0.07254286  0.99303331
   0.34132428  0.18326874  0.55237180
   0.81287773  0.74113723  0.95655531
   0.18674042  0.01483206  0.58806031
   0.31310159  0.24098859  0.95737038
   0.34121849  0.57266652  0.49432816
   0.77301498  0.05807334  0.08372088
   0.80222564  0.11547832  0.47811263
   0.80167701  0.64045932  0.56610701
   0.69749648  0.61571239  0.97914504
   0.69798666  0.14026953  0.06571811
   0.22680027  0.69763242  0.46106389
   0.72674607  0.55826711  0.58469304
   0.72716334  0.19768071  0.46015297
   0.27273803  0.55799605  0.08529688
   0.19774602  0.64013598  0.06657898
   0.19774571  0.11544485  0.97879211
   0.30195723  0.14040765  0.56640956
   0.77250931  0.69790445  0.96064328
   0.22699566  0.05814508  0.58414821
   0.27276289  0.19771083  0.96110850
   0.30180172  0.61546390  0.47979942
   0.73963924  0.05063643  0.88840824
   0.79795771  0.16414314  0.66442366
   0.79739645  0.59180414  0.37976229
   0.70174618  0.66439023  0.16538563
   0.70229507  0.09162427  0.87928335
   0.26011821  0.70510670  0.65653110
   0.76010846  0.55081477  0.38919456
   0.76059068  0.20512578  0.65534064
   0.23946057  0.55052483  0.88973659
   0.20212525  0.59148037  0.88026456
   0.20199487  0.16406743  0.16532973
   0.29765699  0.09181236  0.37973405
   0.73909856  0.70535968  0.15603770
   0.26035507  0.05078871  0.38874501
   0.23933288  0.20508526  0.15635889
   0.29743949  0.66414124  0.66601158
   0.88675359  0.98498351  0.29575157
   0.88638277  0.77083461  0.74802497
   0.61309589  0.48518725  0.79732901
   0.61325953  0.27068570  0.24843619
   0.11318840  0.77058117  0.24774055
   0.38656062  0.48506588  0.29766064
   0.11331501  0.98490376  0.79586742
   0.38663394  0.27080307  0.74942537
   0.76909240  0.10707818  0.27642805
   0.76856668  0.64889382  0.76796740
   0.73061902  0.60729498  0.77729097
   0.73110401  0.14868132  0.26739435
   0.23077401  0.64859498  0.26850877
   0.26873917  0.60701462  0.27791037
   0.23088128  0.10711386  0.77703967
   0.26884222  0.14875062  0.76816911
   0.02856631  0.87765409  0.02101834
   0.97136490  0.87772556  0.52121671
   0.47141401  0.37789774  0.52322332
   0.52849507  0.37792172  0.02322284
   0.32375712  0.08659711  0.22691075
   0.75632776  0.51262743  0.24355731
   0.75678774  0.24330180  0.80105613
   0.74346806  0.01247016  0.74265051
   0.74287969  0.74353733  0.30173731
   0.67562640  0.66969107  0.31824883
   0.17607771  0.58617784  0.72735610
   0.17586857  0.16931812  0.31813079
   0.82349428  0.58652123  0.22688288
   0.24310726  0.24323453  0.30220004
   0.24336742  0.51235989  0.74404379
   0.25626951  0.74329478  0.80213635
   0.32352774  0.66948627  0.81887189
   0.67616637  0.08634203  0.72658129
   0.82410774  0.16944851  0.81710768
   0.25656306  0.01264144  0.24287988
   0.64886117  0.45238423  0.05142798
   0.35088720  0.30371162  0.49567587
   0.45840761  0.48475164  0.04632937
   0.04100678  0.77075811  0.49763291
   0.14890141  0.95206461  0.05015203
   0.45859533  0.27103299  0.99997844
   0.95859845  0.98453038  0.04414989
   0.85072746  0.80377501  0.49420824
   0.04158405  0.98448297  0.54420562
   0.54120819  0.48474138  0.54616461
   0.64898539  0.30360031  0.99450245
   0.85107661  0.95224204  0.55029774
   0.54133640  0.27097233  0.49950333
   0.35090823  0.45217045  0.55178824
   0.14914352  0.80349673  0.99415259
   0.95833254  0.77095944  0.99839290
   0.96661778  0.93121073  0.21598043
   0.93189024  0.92028492  0.37101141
   0.96647173  0.82431017  0.82673129
   0.53330623  0.43137581  0.71779894
   0.56813160  0.33546763  0.17366866
   0.06807038  0.83521366  0.17186733
   0.56806241  0.42041748  0.87254970
   0.53337251  0.32443689  0.32835592
   0.43177410  0.42035269  0.37266276
   0.03316732  0.82415000  0.32611244
   0.06818293  0.92010438  0.87051785
   0.43179879  0.33550454  0.67410997
   0.93172414  0.83540154  0.67229544
   0.03351917  0.93106797  0.71555076
   0.46657291  0.32445379  0.82858854
   0.46649313  0.43137378  0.21785790
   0.84556280  0.02503624  0.29292691
   0.84509681  0.73086499  0.75116129
   0.65424373  0.52525064  0.79429436
   0.65450824  0.23066044  0.25121116
   0.15438253  0.73058272  0.25118644
   0.34529180  0.52506779  0.29481421
   0.15447861  0.02500419  0.79329009
   0.34540592  0.23076955  0.75221756
   0.81894611  0.97196479  0.92301429
   0.86944411  0.07743369  0.66671906
   0.86905023  0.67836745  0.37745979
   0.63033609  0.57768851  0.16815862
   0.63069120  0.17826632  0.87738393
   0.18083647  0.78375995  0.62112664
   0.68096407  0.47210263  0.42446548
   0.68108623  0.28373324  0.62113444
   0.31879330  0.47193722  0.92481207
   0.13054161  0.67803424  0.87756076
   0.13054010  0.07729963  0.16726395
   0.36926180  0.17848384  0.37817357
   0.81865824  0.78391559  0.12143037
   0.18111962  0.97204391  0.42310800
   0.31877870  0.28376910  0.12231915
   0.36915490  0.57755629  0.66856281
 
 position of ions in cartesian coordinates  (Angst):
  20.92404181 25.38842986 -4.66114705
  19.67619656 24.64760331 -2.96774207
  20.91946198 19.73424256  0.83542218
  12.47658117 11.65403370  1.40759716
  13.72755937  7.85226835 -1.02352502
   2.59604822 21.03156300 -3.97326321
  13.72693912 10.91251258  3.09869031
  12.47837086  7.10760396  0.66715327
   8.53865579 11.46484390 -0.01628298
   1.34135301 20.28617720 -2.28722532
   2.59736214 24.08820958  0.14554555
   8.53926331  7.29776547  2.09727854
  19.66960235 20.48117177 -0.85356293
   1.35065473 24.83051387 -1.54804521
   9.79010772  6.55254051  3.78638551
   9.78631865 12.20910321 -1.70817345
  18.10936146  0.29187563  0.46350359
  18.73915400  1.36589502  2.64599153
  18.72968751 17.39938229 -0.57986439
  14.65969048 13.99624877  2.82505057
  14.66545790  4.76991455 -0.75373327
   4.15612375 19.02470313 -1.51446712
  15.28883462 12.92083002  0.64306613
  15.29389704  5.84377029  1.42890594
   6.97192403 13.47123875 -2.47080016
   3.52927298 17.94744754 -3.69617235
   3.53067268  0.80769356  5.76339194
   7.60163662  4.21695476  2.36564249
  18.10333179 18.47449277  1.60303061
   4.15940576 -0.26326543  3.57896274
   6.97426897  5.28812369  4.55017812
   7.59985835 14.54744990 -0.28838438
  17.21246027  1.43749643  0.18325494
  17.86389371  2.51213526  2.30377221
  17.85284242 16.25462848 -0.23809997
  15.53404497 15.14277143  2.48167567
  15.54196794  3.62454825 -0.41313246
   5.05234273 17.87906237 -1.23183396
  16.18430285 14.06710784  0.36126680
  16.19264512  4.69930258  1.70761684
   6.07407696 14.61575197 -2.75187929
   4.40439148 16.80211600 -3.35239285
   4.40554421  1.95456722  5.42224279
   6.72503356  3.07138591  2.70528235
  17.20440822 17.33019407  1.88283543
   5.05580974  0.88295317  3.29978128
   6.07600612  4.14302841  4.82806718
   6.72223847 15.69192495 -0.63104212
  16.47116274  0.34626118  5.24265245
  17.76938474  3.58785194  3.17859365
  17.75700836 15.17920778 -1.11322426
  15.62686845 17.33137277 -2.87716145
  15.63970111  1.43701790  4.94433856
   5.79467679 17.85864361 -0.05730941
  16.92669096 14.08810639 -0.81330046
  16.93741431  4.67842465  2.88057139
   5.33496722 13.52388766  2.30617696
   4.50370185 14.61417885  2.00588953
   4.49835623  4.14138091  0.06558253
   6.62876065  1.99791222  1.82774353
  16.45861991 18.42185489 -3.17644199
   5.79813210  0.90637586  2.12524298
   5.32978852  5.23271919 -0.23163244
   6.62562960 16.76808163  0.24308899
  19.74718234 25.63824164 -3.95099167
  19.73958457 19.48936861  0.12871722
  13.65409757 11.90396695  2.11637726
  13.65607393  6.85956152 -0.04228382
   2.52226823 20.03962570 -2.99141627
   8.60884144 12.45674575 -0.99838666
   2.52675256 25.08016527 -0.83647487
   8.61113153  6.30543559  3.07882398
  17.12565631  2.51506165  1.09594459
  17.11608330 16.25244556  0.97034170
  16.27107597 15.14539772  1.27317288
  16.27985177  3.62193844  0.79457446
   5.14028603 16.80046878 -2.14338378
   5.98557432 15.69378319 -1.83985462
   5.14286570  1.95935868  4.21386486
   5.98816967  3.06690224  3.91363424
   0.63771913 23.11471567 -5.03526918
  21.63148817 22.55967194 -1.91388517
  10.49853784  9.38043523  1.03880022
  11.76835852  9.93727282 -2.07769242
   7.20954865  2.03041721  0.90597888
  16.84210071 13.24336966 -1.49630574
  16.85314534  5.52277989  3.56409894
  16.55600787 -0.49778993  4.55880426
  16.54321968 19.26626704 -2.49299098
  15.04564332 17.30107960 -1.95565194
   3.92335527 14.64450371  1.08388771
   3.91698555  4.10983502  0.98699983
  18.33774496 15.20999147 -2.03494040
   5.41423856  6.07622547  0.45286790
   5.42155000 12.67979930  1.62272598
   5.70938865 18.70343931  0.62545989
   7.20688237 16.73893051  1.16454072
  15.05754808  1.46764809  4.02350354
  18.35201274  3.55785138  4.09918022
   5.71328952  0.06294881  1.44058137
  14.44866427 11.86893421 -2.33970797
   7.81465573  7.45532893  1.30328763
  10.20802133 12.72802318 -2.56282638
   0.91563367 19.76632961 -1.43513874
   3.31733649 25.04397356 -5.29119103
  10.21402562  6.03272869  4.63951636
  21.34631414 25.90615801 -5.51629933
  18.94514444 20.64017671 -1.64742541
   0.92898634 25.34907327 -2.40295359
  12.05284240 12.17166059  0.55314588
  14.45334874  6.89731635  4.41447620
  18.95332055 24.49190243 -2.17177441
  12.05519788  6.58785023  1.52067174
   7.81552589 11.30681357  0.77912797
   3.32464862 20.07702108  1.46749433
  21.34221948 19.21409732  1.68887409
  21.52517621 24.30930060 -4.13134338
  20.75226369 23.84880766 -3.10083824
  21.52314756 20.81157805  0.30485640
  11.87719645 10.57381916  1.93708186
  12.65118812  8.65064464 -0.88985908
   1.51759999 21.82799940 -3.84500383
  12.65142643 10.11274541  2.96632510
  11.87757190  8.18776791  0.13912112
   9.61563280 10.66721373 -0.14975335
   0.74077715 21.36474649 -2.81858642
   1.52188445 23.28879751  0.01009230
   9.61672769  8.09496184  2.22868841
  20.74910993 21.27580864 -0.72320704
   0.74971195 23.75025023 -1.02052980
  10.39135614  7.63175459  3.25677906
  10.38835646 11.12996725 -1.17941004
  18.82825506  0.33374861  1.68205601
  18.82023467 18.43215783  0.38337743
  14.57037280 12.96353724  1.86179808
  14.57446202  5.80124398  0.21080001
   3.43944245 18.98126870 -2.73430861
   7.69000513 13.51452718 -1.25177848
   3.44155088 -0.22338662  4.79818118
   7.69307073  5.24692283  3.33171564
  18.23879611 24.59724613  0.03519892
  19.36096693  1.29928990  3.70362710
  19.35262378 17.46385266 -1.63683753
  14.03668018 15.04255505 -2.34979966
  14.04550416  3.72336232  4.42216965
   4.02942969 19.97165189 -0.74132679
  15.16437867 11.97377387 -0.13043744
  15.16721108  6.78889271  2.20429159
   7.10134896 11.41297588  2.98775756
   2.90995324 16.89909329  1.47922596
   2.90717097  1.85175450  0.58810480
   8.22328742  4.28458338  1.30811845
  18.23018029 20.53133033 -3.85424731
   4.03561877 25.15578211 -3.08396403
   7.09881551  7.34493590 -0.90665345
   8.22231177 14.48251738  0.76898514
 


--------------------------------------------------------------------------------------------------------


 k-point  1 :   0.0000 0.0000 0.0000  plane waves:  117237
 k-point  2 :  -0.0000 0.0000 0.2500  plane waves:  117256
 k-point  3 :  -0.0000 0.0000 0.5000  plane waves:  117186

 maximum and minimum number of plane-waves per node :     29498    29196

 maximum number of plane-waves:    117256
 maximum index in each direction: 
   IXMAX=   44   IYMAX=   53   IZMAX=   12
   IXMIN=  -44   IYMIN=  -53   IZMIN=  -13


 real space projection operators:
  total allocation   :      13119.75 KBytes
  max/ min on nodes  :       3283.16       3276.41


 parallel 3D FFT for wavefunctions:
    minimum data exchange during FFTs selected (reduces bandwidth)
 parallel 3D FFT for charge:
    minimum data exchange during FFTs selected (reduces bandwidth)


 total amount of memory used by VASP MPI-rank0   104113. kBytes
=======================================================================

   base      :      30000. kBytes
   nonlr-proj:       6681. kBytes
   fftplans  :      11319. kBytes
   grid      :      19738. kBytes
   one-center:        606. kBytes
   wavefun   :      35769. kBytes
 
     INWAV:  cpu time    0.0002: real time    0.0001
 Broyden mixing: mesh for mixing (old mesh)
   NGX = 89   NGY =107   NGZ = 25
  (NGX  =280   NGY  =324   NGZ  = 80)
  gives a total of 238075 points

 initial charge density was supplied:
 charge density of overlapping atoms calculated
 number of electron     616.0000000 magnetization 
 keeping initial charge density in first step


--------------------------------------------------------------------------------------------------------


 Maximum index for non-local projection operator          596
 Maximum index for augmentation-charges          416 (set IRDMAX)


--------------------------------------------------------------------------------------------------------


 First call to EWALD:  gamma=   0.117
 Maximum number of real-space cells 2x 2x 6
 Maximum number of reciprocal cells 4x 5x 1

    FEWALD:  cpu time    0.0157: real time    0.0157


--------------------------------------- Iteration      1(   1)  ---------------------------------------


    POTLOK:  cpu time    0.1753: real time    0.2006
    SETDIJ:  cpu time    0.0358: real time    0.0366
    EDDIAG:  cpu time    2.6003: real time    2.6670
  RMM-DIIS:  cpu time    3.4575: real time    3.4628
    ORTHCH:  cpu time    0.5533: real time    0.5545
       DOS:  cpu time    0.0023: real time    0.0035
    --------------------------------------------
      LOOP:  cpu time    6.8244: real time    6.9251

 eigenvalue-minimisations  :  1200
 total energy-change (2. order) : 0.8049311E+04  (-0.2262565E+05)
 number of electron     616.0000000 magnetization 
 augmentation part      616.0000000 magnetization 

 Free energy of the ion-electron system (eV)
  ---------------------------------------------------
  alpha Z        PSCENC =       549.90216974
  Ewald energy   TEWEN  =     40661.81266527
  -Hartree energ DENC   =    -67916.48744762
  -exchange      EXHF   =         0.00000000
  -V(xc)+E(xc)   XCENC  =      2272.74582992
  PAW double counting   =     25034.14638475   -25847.60581054
  entropy T*S    EENTRO =        -0.06432970
  eigenvalues    EBANDS =       861.18152453
  atomic energy  EATOM  =     32433.67991533
  Solvation  Ediel_sol  =         0.00000000
  ---------------------------------------------------
  free energy    TOTEN  =      8049.31090168 eV

  energy without entropy =     8049.37523138  energy(sigma->0) =     8049.34306653


--------------------------------------------------------------------------------------------------------




--------------------------------------- Iteration      1(   2)  ---------------------------------------


    EDDIAG:  cpu time    2.5173: real time    2.5204
  RMM-DIIS:  cpu time    3.3978: real time    3.4016
    ORTHCH:  cpu time    0.5483: real time    0.5494
       DOS:  cpu time    0.0019: real time    0.0019
    --------------------------------------------
      LOOP:  cpu time    6.4653: real time    6.4733

 eigenvalue-minimisations  :  1200
 total energy-change (2. order) :-0.5014380E+04  (-0.6747849E+04)
 number of electron     616.0000000 magnetization 
 augmentation part      616.0000000 magnetization 

 Free energy of the ion-electron system (eV)
  ---------------------------------------------------
  alpha Z        PSCENC =       549.90216974
  Ewald energy   TEWEN  =     40661.81266527
  -Hartree energ DENC   =    -67916.48744762
  -exchange      EXHF   =         0.00000000
  -V(xc)+E(xc)   XCENC  =      2272.74582992
  PAW double counting   =     25034.14638475   -25847.60581054
  entropy T*S    EENTRO =        -0.05476256
  eigenvalues    EBANDS =     -4153.20759404
  atomic energy  EATOM  =     32433.67991533
  Solvation  Ediel_sol  =         0.00000000
  ---------------------------------------------------
  free energy    TOTEN  =      3034.93135025 eV

  energy without entropy =     3034.98611282  energy(sigma->0) =     3034.95873153


--------------------------------------------------------------------------------------------------------




--------------------------------------- Iteration      1(   3)  ---------------------------------------


    EDDIAG:  cpu time    2.5053: real time    2.5090
  RMM-DIIS:  cpu time    3.3941: real time    3.3979
    ORTHCH:  cpu time    0.5507: real time    0.5520
       DOS:  cpu time    0.0035: real time    0.0035
    --------------------------------------------
      LOOP:  cpu time    6.4537: real time    6.4624

 eigenvalue-minimisations  :  1200
 total energy-change (2. order) :-0.2102116E+04  (-0.2886936E+04)
 number of electron     616.0000000 magnetization 
 augmentation part      616.0000000 magnetization 

 Free energy of the ion-electron system (eV)
  ---------------------------------------------------
  alpha Z        PSCENC =       549.90216974
  Ewald energy   TEWEN  =     40661.81266527
  -Hartree energ DENC   =    -67916.48744762
  -exchange      EXHF   =         0.00000000
  -V(xc)+E(xc)   XCENC  =      2272.74582992
  PAW double counting   =     25034.14638475   -25847.60581054
  entropy T*S    EENTRO =        -0.04705049
  eigenvalues    EBANDS =     -6255.33174524
  atomic energy  EATOM  =     32433.67991533
  Solvation  Ediel_sol  =         0.00000000
  ---------------------------------------------------
  free energy    TOTEN  =       932.81491113 eV

  energy without entropy =      932.86196161  energy(sigma->0) =      932.83843637


--------------------------------------------------------------------------------------------------------




--------------------------------------- Iteration      1(   4)  ---------------------------------------


    EDDIAG:  cpu time    2.5119: real time    2.5180
  RMM-DIIS:  cpu time    3.4012: real time    3.4061
    ORTHCH:  cpu time    0.5484: real time    0.5485
       DOS:  cpu time    0.0018: real time    0.0018
    --------------------------------------------
      LOOP:  cpu time    6.4633: real time    6.4744

 eigenvalue-minimisations  :  1200
 total energy-change (2. order) :-0.1347469E+04  (-0.1344954E+04)
 number of electron     616.0000000 magnetization 
 augmentation part      616.0000000 magnetization 

 Free energy of the ion-electron system (eV)
  ---------------------------------------------------
  alpha Z        PSCENC =       549.90216974
  Ewald energy   TEWEN  =     40661.81266527
  -Hartree energ DENC   =    -67916.48744762
  -exchange      EXHF   =         0.00000000
  -V(xc)+E(xc)   XCENC  =      2272.74582992
  PAW double counting   =     25034.14638475   -25847.60581054
  entropy T*S    EENTRO =        -0.02356956
  eigenvalues    EBANDS =     -7602.82412252
  atomic energy  EATOM  =     32433.67991533
  Solvation  Ediel_sol  =         0.00000000
  ---------------------------------------------------
  free energy    TOTEN  =      -414.65398522 eV

  energy without entropy =     -414.63041567  energy(sigma->0) =     -414.64220045


--------------------------------------------------------------------------------------------------------




--------------------------------------- Iteration      1(   5)  ---------------------------------------


    EDDIAG:  cpu time    2.5060: real time    2.5095
  RMM-DIIS:  cpu time    3.3921: real time    3.3971
    ORTHCH:  cpu time    0.5500: real time    0.5502
       DOS:  cpu time    0.0020: real time    0.0019
    --------------------------------------------
      LOOP:  cpu time    6.4501: real time    6.4587

 eigenvalue-minimisations  :  1200
 total energy-change (2. order) :-0.5470288E+03  (-0.4857912E+03)
 number of electron     616.0000000 magnetization 
 augmentation part      616.0000000 magnetization 

 Free energy of the ion-electron system (eV)
  ---------------------------------------------------
  alpha Z        PSCENC =       549.90216974
  Ewald energy   TEWEN  =     40661.81266527
  -Hartree energ DENC   =    -67916.48744762
  -exchange      EXHF   =         0.00000000
  -V(xc)+E(xc)   XCENC  =      2272.74582992
  PAW double counting   =     25034.14638475   -25847.60581054
  entropy T*S    EENTRO =        -0.03956090
  eigenvalues    EBANDS =     -8149.83690693
  atomic energy  EATOM  =     32433.67991533
  Solvation  Ediel_sol  =         0.00000000
  ---------------------------------------------------
  free energy    TOTEN  =      -961.68276097 eV

  energy without entropy =     -961.64320007  energy(sigma->0) =     -961.66298052


--------------------------------------------------------------------------------------------------------




--------------------------------------- Iteration      1(   6)  ---------------------------------------


    EDDIAG:  cpu time    2.5221: real time    2.5255
  RMM-DIIS:  cpu time    3.3999: real time    3.4047
    ORTHCH:  cpu time    0.5492: real time    0.5503
       DOS:  cpu time    0.0009: real time    0.0009
    --------------------------------------------
      LOOP:  cpu time    6.4720: real time    6.4814

 eigenvalue-minimisations  :  1200
 total energy-change (2. order) :-0.1869259E+03  (-0.1620858E+03)
 number of electron     616.0000000 magnetization 
 augmentation part      616.0000000 magnetization 

 Free energy of the ion-electron system (eV)
  ---------------------------------------------------
  alpha Z        PSCENC =       549.90216974
  Ewald energy   TEWEN  =     40661.81266527
  -Hartree energ DENC   =    -67916.48744762
  -exchange      EXHF   =         0.00000000
  -V(xc)+E(xc)   XCENC  =      2272.74582992
  PAW double counting   =     25034.14638475   -25847.60581054
  entropy T*S    EENTRO =        -0.00000000
  eigenvalues    EBANDS =     -8336.80233531
  atomic energy  EATOM  =     32433.67991533
  Solvation  Ediel_sol  =         0.00000000
  ---------------------------------------------------
  free energy    TOTEN  =     -1148.60862846 eV

  energy without entropy =    -1148.60862846  energy(sigma->0) =    -1148.60862846


--------------------------------------------------------------------------------------------------------




--------------------------------------- Iteration      1(   7)  ---------------------------------------


    EDDIAG:  cpu time    2.5110: real time    2.5137
  RMM-DIIS:  cpu time    3.4012: real time    3.4062
    ORTHCH:  cpu time    0.5489: real time    0.5528
       DOS:  cpu time    0.0017: real time    0.0017
    --------------------------------------------
      LOOP:  cpu time    6.4629: real time    6.4745

 eigenvalue-minimisations  :  1200
 total energy-change (2. order) :-0.5732822E+02  (-0.5328546E+02)
 number of electron     616.0000000 magnetization 
 augmentation part      616.0000000 magnetization 

 Free energy of the ion-electron system (eV)
  ---------------------------------------------------
  alpha Z        PSCENC =       549.90216974
  Ewald energy   TEWEN  =     40661.81266527
  -Hartree energ DENC   =    -67916.48744762
  -exchange      EXHF   =         0.00000000
  -V(xc)+E(xc)   XCENC  =      2272.74582992
  PAW double counting   =     25034.14638475   -25847.60581054
  entropy T*S    EENTRO =        -0.00000000
  eigenvalues    EBANDS =     -8394.13055581
  atomic energy  EATOM  =     32433.67991533
  Solvation  Ediel_sol  =         0.00000000
  ---------------------------------------------------
  free energy    TOTEN  =     -1205.93684895 eV

  energy without entropy =    -1205.93684895  energy(sigma->0) =    -1205.93684895


--------------------------------------------------------------------------------------------------------




--------------------------------------- Iteration      1(   8)  ---------------------------------------


    EDDIAG:  cpu time    2.5087: real time    2.5126
  RMM-DIIS:  cpu time    3.3997: real time    3.4036
    ORTHCH:  cpu time    0.5509: real time    0.5520
       DOS:  cpu time    0.0014: real time    0.0014
    --------------------------------------------
      LOOP:  cpu time    6.4607: real time    6.4695

 eigenvalue-minimisations  :  1200
 total energy-change (2. order) :-0.2107477E+02  (-0.1856441E+02)
 number of electron     616.0000000 magnetization 
 augmentation part      616.0000000 magnetization 

 Free energy of the ion-electron system (eV)
  ---------------------------------------------------
  alpha Z        PSCENC =       549.90216974
  Ewald energy   TEWEN  =     40661.81266527
  -Hartree energ DENC   =    -67916.48744762
  -exchange      EXHF   =         0.00000000
  -V(xc)+E(xc)   XCENC  =      2272.74582992
  PAW double counting   =     25034.14638475   -25847.60581054
  entropy T*S    EENTRO =        -0.00000000
  eigenvalues    EBANDS =     -8415.20532404
  atomic energy  EATOM  =     32433.67991533
  Solvation  Ediel_sol  =         0.00000000
  ---------------------------------------------------
  free energy    TOTEN  =     -1227.01161718 eV

  energy without entropy =    -1227.01161718  energy(sigma->0) =    -1227.01161718


--------------------------------------------------------------------------------------------------------




--------------------------------------- Iteration      1(   9)  ---------------------------------------


    EDDIAG:  cpu time    2.5038: real time    2.5073
  RMM-DIIS:  cpu time    7.3114: real time    7.3311
    ORTHCH:  cpu time    0.5474: real time    0.5484
       DOS:  cpu time    0.0009: real time    0.0009
    --------------------------------------------
      LOOP:  cpu time   10.3635: real time   10.3877

 eigenvalue-minimisations  :  2852
 total energy-change (2. order) :-0.1190574E+02  (-0.1141450E+02)
 number of electron     616.0000000 magnetization 
 augmentation part      616.0000000 magnetization 

 Free energy of the ion-electron system (eV)
  ---------------------------------------------------
  alpha Z        PSCENC =       549.90216974
  Ewald energy   TEWEN  =     40661.81266527
  -Hartree energ DENC   =    -67916.48744762
[...]
   -.605E+01 0.218E+03 -.326E+01   -.164E+02 -.210E+03 0.112E+02   0.225E+02 -.789E+01 -.792E+01   0.224E-05 0.390E-04 0.156E-04
   0.277E+03 -.474E+02 -.855E+02   -.275E+03 0.286E+02 0.981E+02   -.170E+01 0.188E+02 -.126E+02   -.256E-04 -.364E-04 0.523E-05
   -.444E+01 0.219E+03 -.217E+01   -.181E+02 -.211E+03 0.995E+01   0.226E+02 -.785E+01 -.780E+01   0.309E-05 0.388E-04 0.163E-04
   -.278E+03 -.476E+02 -.850E+02   0.276E+03 0.288E+02 0.975E+02   0.167E+01 0.188E+02 -.126E+02   0.245E-04 -.380E-04 0.580E-05
   0.277E+03 0.479E+02 0.853E+02   -.275E+03 -.292E+02 -.979E+02   -.168E+01 -.188E+02 0.126E+02   -.251E-04 0.381E-04 -.549E-05
   0.277E+03 0.476E+02 0.851E+02   -.275E+03 -.289E+02 -.977E+02   -.172E+01 -.188E+02 0.126E+02   -.241E-04 0.376E-04 -.546E-05
   -.701E+01 -.217E+03 0.397E+01   -.154E+02 0.209E+03 -.119E+02   0.225E+02 0.794E+01 0.799E+01   0.221E-05 -.389E-04 -.154E-04
   0.528E+01 0.218E+03 -.293E+01   0.172E+02 -.210E+03 0.108E+02   -.225E+02 -.787E+01 -.788E+01   -.239E-05 0.399E-04 0.164E-04
   0.570E+01 -.217E+03 0.329E+01   0.167E+02 0.209E+03 -.112E+02   -.225E+02 0.788E+01 0.793E+01   -.300E-05 -.383E-04 -.161E-04
   0.122E+03 -.983E+02 -.212E+02   -.122E+03 0.984E+02 0.214E+02   0.699E+00 -.144E+00 -.180E+00   -.461E-04 -.413E-04 0.641E-05
   0.123E+03 0.972E+02 0.212E+02   -.123E+03 -.973E+02 -.214E+02   0.735E+00 0.117E+00 0.198E+00   -.461E-04 0.451E-04 -.484E-05
   -.122E+03 -.980E+02 -.211E+02   0.122E+03 0.981E+02 0.213E+02   -.692E+00 -.153E+00 -.173E+00   0.457E-04 -.423E-04 0.624E-05
   -.121E+03 0.979E+02 0.211E+02   0.122E+03 -.980E+02 -.213E+02   -.680E+00 0.151E+00 0.167E+00   0.471E-04 0.418E-04 -.539E-05
   -.122E+03 0.977E+02 0.211E+02   0.123E+03 -.978E+02 -.213E+02   -.719E+00 0.128E+00 0.175E+00   0.467E-04 0.439E-04 -.340E-05
   0.122E+03 -.976E+02 -.213E+02   -.123E+03 0.977E+02 0.215E+02   0.726E+00 -.137E+00 -.203E+00   -.466E-04 -.448E-04 0.422E-05
   -.122E+03 -.978E+02 -.212E+02   0.123E+03 0.979E+02 0.214E+02   -.709E+00 -.143E+00 -.197E+00   0.470E-04 -.437E-04 0.487E-05
   0.122E+03 0.981E+02 0.209E+02   -.122E+03 -.983E+02 -.211E+02   0.676E+00 0.162E+00 0.162E+00   -.462E-04 0.430E-04 -.370E-05
   0.358E+03 0.208E+03 0.177E+03   -.353E+03 -.250E+03 -.211E+03   -.566E+01 0.420E+02 0.337E+02   -.560E-04 -.418E-04 -.237E-04
   -.209E+03 -.282E+03 -.297E+03   0.237E+03 0.279E+03 0.344E+03   -.277E+02 0.307E+01 -.470E+02   -.847E-04 -.148E-04 0.386E-04
   -.209E+03 0.282E+03 0.297E+03   0.237E+03 -.279E+03 -.344E+03   -.278E+02 -.297E+01 0.470E+02   -.834E-04 0.168E-04 -.405E-04
   0.210E+03 -.282E+03 -.297E+03   -.237E+03 0.279E+03 0.344E+03   0.277E+02 0.304E+01 -.470E+02   0.842E-04 -.149E-04 0.409E-04
   0.210E+03 0.281E+03 0.297E+03   -.237E+03 -.278E+03 -.344E+03   0.277E+02 -.303E+01 0.470E+02   0.865E-04 0.155E-04 -.380E-04
   -.358E+03 -.209E+03 -.176E+03   0.352E+03 0.251E+03 0.210E+03   0.573E+01 -.421E+02 -.336E+02   0.555E-04 0.432E-04 0.238E-04
   -.359E+03 0.209E+03 0.177E+03   0.353E+03 -.251E+03 -.211E+03   0.562E+01 0.421E+02 0.337E+02   0.553E-04 -.429E-04 -.256E-04
   -.358E+03 -.209E+03 -.177E+03   0.352E+03 0.251E+03 0.211E+03   0.573E+01 -.420E+02 -.337E+02   0.563E-04 0.409E-04 0.241E-04
   0.358E+03 0.209E+03 0.177E+03   -.352E+03 -.251E+03 -.211E+03   -.574E+01 0.420E+02 0.337E+02   -.565E-04 -.436E-04 -.241E-04
   0.210E+03 0.282E+03 0.297E+03   -.238E+03 -.279E+03 -.344E+03   0.277E+02 -.295E+01 0.470E+02   0.843E-04 0.146E-04 -.392E-04
   0.209E+03 -.281E+03 -.297E+03   -.237E+03 0.278E+03 0.344E+03   0.277E+02 0.315E+01 -.470E+02   0.847E-04 -.160E-04 0.395E-04
   -.209E+03 0.281E+03 0.297E+03   0.237E+03 -.278E+03 -.344E+03   -.277E+02 -.311E+01 0.470E+02   -.840E-04 0.155E-04 -.406E-04
   0.357E+03 -.209E+03 -.177E+03   -.352E+03 0.251E+03 0.211E+03   -.584E+01 -.420E+02 -.338E+02   -.547E-04 0.441E-04 0.252E-04
   -.358E+03 0.208E+03 0.178E+03   0.353E+03 -.250E+03 -.211E+03   0.567E+01 0.420E+02 0.338E+02   0.571E-04 -.422E-04 -.232E-04
   0.358E+03 -.208E+03 -.178E+03   -.352E+03 0.250E+03 0.211E+03   -.574E+01 -.420E+02 -.338E+02   -.553E-04 0.419E-04 0.229E-04
   -.210E+03 -.282E+03 -.297E+03   0.238E+03 0.279E+03 0.344E+03   -.277E+02 0.299E+01 -.470E+02   -.838E-04 -.162E-04 0.396E-04
 -----------------------------------------------------------------------------------------------
   0.444E+00 -.393E+00 -.134E+00   -.711E-12 -.341E-12 0.966E-12   -.420E+00 0.417E+00 0.169E+00   0.250E-05 0.687E-05 0.737E-05
 
 
 POSITION                                       TOTAL-FORCE (eV/Angst)
 -----------------------------------------------------------------------------------
     20.92404     25.38843     -4.66115         0.000878      0.000061      0.003593
     19.67620     24.64760     -2.96774         0.000820     -0.000252      0.001480
     20.91946     19.73424      0.83542         0.001124      0.000958     -0.003467
     12.47658     11.65403      1.40760         0.000952     -0.000339      0.002303
     13.72756      7.85227     -1.02353        -0.000678      0.003354     -0.002814
      2.59605     21.03156     -3.97326        -0.000187      0.000347     -0.002257
     13.72694     10.91251      3.09869        -0.000563     -0.003076      0.001247
     12.47837      7.10760      0.66715         0.002261     -0.000195     -0.003502
      8.53866     11.46484     -0.01628        -0.001089     -0.003736      0.003341
      1.34135     20.28618     -2.28723         0.001095      0.001137     -0.003448
      2.59736     24.08821      0.14555        -0.000888     -0.001709      0.000000
      8.53926      7.29777      2.09728        -0.000141      0.001428     -0.002700
     19.66960     20.48117     -0.85356         0.000525      0.000337     -0.001820
      1.35065     24.83051     -1.54805         0.001115      0.000934      0.001070
      9.79011      6.55254      3.78639        -0.000131      0.000759     -0.003622
      9.78632     12.20910     -1.70817        -0.002305      0.002127      0.001804
     18.10936      0.29188      0.46350        -0.003857      0.006027     -0.001527
     18.73915      1.36590      2.64599        -0.000468      0.005672     -0.001870
     18.72969     17.39938     -0.57986        -0.000251     -0.002621      0.001960
     14.65969     13.99625      2.82505         0.001375      0.006280     -0.000110
     14.66546      4.76991     -0.75373        -0.000779     -0.004161      0.000587
      4.15612     19.02470     -1.51447         0.002039     -0.002149     -0.002800
     15.28883     12.92083      0.64307         0.003499      0.003036     -0.001102
     15.29390      5.84377      1.42891         0.002935     -0.002507      0.001459
      6.97192     13.47124     -2.47080        -0.001761      0.003460      0.000143
      3.52927     17.94745     -3.69617         0.000618     -0.006272      0.003188
      3.53067      0.80769      5.76339         0.000493      0.000935     -0.002492
      7.60164      4.21695      2.36564        -0.001772     -0.002786      0.001623
     18.10333     18.47449      1.60303        -0.002306     -0.004921     -0.000657
      4.15941     -0.26327      3.57896         0.005199      0.004520     -0.002899
      6.97427      5.28812      4.55018        -0.001877     -0.001657      0.002907
      7.59986     14.54745     -0.28838        -0.005148     -0.000203     -0.001945
     17.21246      1.43750      0.18325         0.001081     -0.004359      0.000679
     17.86389      2.51214      2.30377        -0.000759     -0.002767     -0.003767
     17.85284     16.25463     -0.23810        -0.000823      0.003723      0.006065
     15.53404     15.14277      2.48168         0.001216     -0.002063     -0.003125
     15.54197      3.62455     -0.41313         0.003414      0.004016      0.005606
      5.05234     17.87906     -1.23183        -0.003201      0.003776     -0.000686
     16.18430     14.06711      0.36127        -0.001274     -0.005813     -0.000577
     16.19265      4.69930      1.70762        -0.001746      0.004691      0.001308
      6.07408     14.61575     -2.75188         0.002074     -0.003310     -0.002288
      4.40439     16.80212     -3.35239         0.004102      0.003226      0.005239
      4.40554      1.95457      5.42224        -0.001703     -0.003716     -0.000728
      6.72503      3.07139      2.70528        -0.002133      0.003164      0.003052
     17.20441     17.33019      1.88284         0.001184      0.004458      0.003310
      5.05581      0.88295      3.29978        -0.001945     -0.001961     -0.000091
      6.07601      4.14303      4.82807         0.000798      0.002762      0.000684
      6.72224     15.69192     -0.63104         0.001752     -0.004052     -0.004335
     16.47116      0.34626      5.24265         0.003814      0.000340      0.001378
     17.76938      3.58785      3.17859        -0.001624      0.001011      0.001141
     17.75701     15.17921     -1.11322        -0.001347     -0.000479      0.000961
     15.62687     17.33137     -2.87716         0.002664     -0.001403      0.000905
     15.63970      1.43702      4.94434        -0.000963     -0.002295      0.003273
      5.79468     17.85864     -0.05731        -0.005442      0.003485     -0.002700
     16.92669     14.08811     -0.81330        -0.001814     -0.001674      0.000857
     16.93741      4.67842      2.88057        -0.001120      0.002318     -0.001644
      5.33497     13.52389      2.30618         0.000229      0.001438      0.002100
      4.50370     14.61418      2.00589         0.000277     -0.001979      0.003034
      4.49836      4.14138      0.06558         0.002364      0.003763      0.001210
      6.62876      1.99791      1.82774         0.002565     -0.000831      0.000627
     16.45862     18.42185     -3.17644         0.000178      0.000671     -0.000397
      5.79813      0.90638      2.12524        -0.003284     -0.004056      0.001661
      5.32979      5.23272     -0.23163        -0.000316     -0.000198     -0.000739
      6.62563     16.76808      0.24309         0.003436     -0.000653      0.000699
     19.74718     25.63824     -3.95099        -0.004384     -0.000495      0.000392
     19.73958     19.48937      0.12872        -0.003720     -0.002238     -0.000358
     13.65410     11.90397      2.11638         0.005059      0.001732      0.001700
     13.65607      6.85956     -0.04228         0.004986     -0.001551     -0.002225
      2.52227     20.03963     -2.99142         0.004464     -0.001048      0.000349
      8.60884     12.45675     -0.99839        -0.003691      0.000288      0.003259
      2.52675     25.08017     -0.83647         0.001939      0.001346      0.002263
      8.61113      6.30544      3.07882        -0.004707     -0.000295     -0.000899
     17.12566      2.51506      1.09594         0.001662      0.001251      0.001263
     17.11608     16.25245      0.97034         0.002636     -0.003125      0.000378
     16.27108     15.14540      1.27317        -0.001864      0.000792      0.000395
     16.27985      3.62194      0.79457         0.002249     -0.004894      0.001634
      5.14029     16.80047     -2.14338         0.000649     -0.003811      0.000893
      5.98557     15.69378     -1.83985         0.001763     -0.000172      0.002469
      5.14287      1.95936      4.21386        -0.002691      0.001878      0.003541
      5.98817      3.06690      3.91363         0.000925     -0.006569     -0.001551
      0.63772     23.11472     -5.03527         0.000234      0.001271      0.000575
     21.63149     22.55967     -1.91389        -0.000496      0.001642     -0.000332
     10.49854      9.38044      1.03880        -0.000316     -0.001027      0.001385
     11.76836      9.93727     -2.07769         0.003930      0.002478      0.002570
      7.20955      2.03042      0.90598        -0.002397     -0.003792      0.001549
     16.84210     13.24337     -1.49631        -0.003140     -0.005817     -0.000798
     16.85315      5.52278      3.56410        -0.002811      0.003443      0.000724
     16.55601     -0.49779      4.55880         0.002148     -0.005871     -0.000523
     16.54322     19.26627     -2.49299         0.004380      0.003515     -0.000265
     15.04564     17.30108     -1.95565         0.002097      0.004728     -0.001112
      3.92336     14.64450      1.08389         0.001913     -0.004242     -0.001601
      3.91699      4.10984      0.98700         0.002131      0.002017     -0.002804
     18.33774     15.20999     -2.03494        -0.000442     -0.004741     -0.001897
      5.41424      6.07623      0.45287         0.002998      0.003666      0.002342
      5.42155     12.67980      1.62273         0.002148     -0.008121     -0.001860
      5.70939     18.70344      0.62546        -0.001617      0.005388      0.001511
      7.20688     16.73893      1.16454        -0.002346      0.002417      0.001072
     15.05755      1.46765      4.02350         0.001650     -0.003479     -0.002377
     18.35201      3.55785      4.09918        -0.002558      0.002297      0.000242
      5.71329      0.06295      1.44058        -0.003421     -0.004230     -0.001058
     14.44866     11.86893     -2.33971         0.000628     -0.000739     -0.000930
      7.81466      7.45533      1.30329        -0.000201      0.000699      0.000459
     10.20802     12.72802     -2.56283         0.001059      0.001598      0.000175
      0.91563     19.76633     -1.43514         0.000893     -0.001810      0.001081
      3.31734     25.04397     -5.29119        -0.002197      0.000695     -0.003998
     10.21403      6.03273      4.63952        -0.002076     -0.000473     -0.001938
     21.34631     25.90616     -5.51630        -0.000483      0.001000      0.000831
     18.94514     20.64018     -1.64743         0.000583     -0.000274      0.001456
      0.92899     25.34907     -2.40295        -0.000530      0.001704     -0.000036
     12.05284     12.17166      0.55315         0.001190      0.002656      0.000573
     14.45335      6.89732      4.41448        -0.001211     -0.000562      0.003196
     18.95332     24.49190     -2.17177        -0.000288     -0.001191     -0.001411
     12.05520      6.58785      1.52067         0.001698     -0.000588     -0.001262
      7.81553     11.30681      0.77913         0.001265      0.001478     -0.004471
      3.32465     20.07702      1.46749        -0.001248      0.000341      0.001508
     21.34222     19.21410      1.68887        -0.000457     -0.001018     -0.001391
     21.52518     24.30930     -4.13134         0.001349     -0.001688      0.001130
     20.75226     23.84881     -3.10084         0.001161     -0.001978      0.001625
     21.52315     20.81158      0.30486         0.000270     -0.001279     -0.000574
     11.87720     10.57382      1.93708        -0.002949      0.000110      0.002084
     12.65119      8.65064     -0.88986        -0.002599      0.000361     -0.003178
      1.51760     21.82800     -3.84500        -0.000515      0.000876     -0.002388
     12.65143     10.11275      2.96633        -0.003027     -0.000362      0.002320
     11.87757      8.18777      0.13912         0.000158     -0.002191     -0.001552
      9.61563     10.66721     -0.14975         0.001794     -0.000295      0.004073
      0.74078     21.36475     -2.81859        -0.001013      0.000284     -0.002290
      1.52188     23.28880      0.01009        -0.000914     -0.001437      0.003071
      9.61673      8.09496      2.22869         0.000696     -0.001090     -0.002073
     20.74911     21.27581     -0.72321        -0.000757     -0.000637     -0.000272
      0.74971     23.75025     -1.02053        -0.000401     -0.000519      0.002899
     10.39136      7.63175      3.25678        -0.000142     -0.001745     -0.001304
     10.38836     11.12997     -1.17941         0.000992     -0.000320      0.003311
     18.82826      0.33375      1.68206        -0.003606      0.002421     -0.001351
     18.82023     18.43216      0.38338        -0.001125      0.002247     -0.001239
     14.57037     12.96354      1.86180         0.001934      0.000662      0.000013
     14.57446      5.80124      0.21080         0.001643     -0.000114     -0.000537
      3.43944     18.98127     -2.73431         0.001820      0.000717     -0.001900
      7.69001     13.51453     -1.25178         0.000592      0.002500     -0.001704
      3.44155     -0.22339      4.79818         0.000924     -0.001170     -0.003263
      7.69307      5.24692      3.33172        -0.002181      0.001961     -0.000618
     18.23880     24.59725      0.03520         0.006308     -0.006169     -0.002925
     19.36097      1.29929      3.70363         0.001041      0.003123      0.003566
     19.35262     17.46385     -1.63684         0.000019     -0.000775     -0.004829
     14.03668     15.04256     -2.34980        -0.000792      0.001067      0.000279
     14.04550      3.72336      4.42217        -0.002493     -0.000919     -0.003762
      4.02943     19.97165     -0.74133        -0.001406      0.007441      0.003370
     15.16438     11.97377     -0.13044        -0.004954     -0.003869     -0.002954
     15.16721      6.78889      2.20429        -0.002065      0.008045      0.003689
      7.10135     11.41298      2.98776         0.004322     -0.003501     -0.001611
      2.90995     16.89909      1.47923        -0.001524     -0.000335     -0.003574
      2.90717      1.85175      0.58810        -0.000621      0.004606      0.001299
      8.22329      4.28458      1.30812         0.002327     -0.003276     -0.003836
     18.23018     20.53133     -3.85425        -0.000140      0.008613      0.000303
      4.03562     25.15578     -3.08396        -0.005948     -0.006066     -0.001474
      7.09882      7.34494     -0.90665         0.001859      0.006915      0.002712
      8.22231     14.48252      0.76899        -0.000397      0.003624     -0.001607
 -----------------------------------------------------------------------------------
    total drift:                                0.024090      0.023912      0.035162


--------------------------------------------------------------------------------------------------------



  FREE ENERGIE OF THE ION-ELECTRON SYSTEM (eV)
  ---------------------------------------------------
  free  energy   TOTEN  =     -1162.00044145 eV

  energy  without entropy=    -1162.00044145  energy(sigma->0) =    -1162.00044145
 


--------------------------------------------------------------------------------------------------------


    POTLOK:  cpu time    0.1759: real time    0.1768


--------------------------------------------------------------------------------------------------------




--------------------------------------------------------------------------------------------------------


  
 reached required accuracy - stopping structural energy minimisation
 writing wavefunctions
     LOOP+:  cpu time  379.1619: real time  381.8317
    4ORBIT:  cpu time    0.0000: real time    0.0000

 total amount of memory used by VASP MPI-rank0   104113. kBytes
=======================================================================

   base      :      30000. kBytes
   nonlr-proj:       6681. kBytes
   fftplans  :      11319. kBytes
   grid      :      19738. kBytes
   one-center:        606. kBytes
   wavefun   :      35769. kBytes
 
  
  
 General timing and accounting informations for this job:
 ========================================================
  
                  Total CPU time used (sec):      466.545
                            User time (sec):      417.882
                          System time (sec):       48.663
                         Elapsed time (sec):      471.965
  
                   Maximum memory used (kb):     1001452.
                   Average memory used (kb):           0.
  
                          Minor page faults:       237730
                          Major page faults:            5
                 Voluntary context switches:        10065
