       N       E                     dE             d eps       ncg     rms          rms(c)
RMM:   1     0.708908923656E+04    0.70891E+04   -0.24781E+05  2400   0.132E+03
RMM:   2     0.256716980182E+04   -0.45219E+04   -0.67307E+04  2400   0.297E+02
RMM:   3     0.442196860357E+03   -0.21250E+04   -0.26600E+04  2400   0.180E+02
RMM:   4    -0.650256918183E+03   -0.10925E+04   -0.10643E+04  2400   0.142E+02
RMM:   5    -0.103882257558E+04   -0.38857E+03   -0.34900E+03  2400   0.843E+01
RMM:   6    -0.116888812395E+04   -0.13007E+03   -0.11414E+03  2400   0.511E+01
RMM:   7    -0.121259313945E+04   -0.43705E+02   -0.39988E+02  2400   0.296E+01
RMM:   8    -0.122865232539E+04   -0.16059E+02   -0.14371E+02  2400   0.188E+01
RMM:   9    -0.123882079390E+04   -0.10168E+02   -0.96769E+01  6174   0.113E+01
RMM:  10    -0.123920934907E+04   -0.38856E+00   -0.42088E+00  6216   0.280E+00
RMM:  11    -0.123924737478E+04   -0.38026E-01   -0.33730E-01  6196   0.638E-01
RMM:  12    -0.123924825217E+04   -0.87739E-03   -0.11173E-02  6089   0.140E-01    0.576E+01
RMM:  13    -0.116751835535E+04    0.71730E+02   -0.15789E+02  4800   0.163E+01    0.320E+01
RMM:  14    -0.115268654600E+04    0.14832E+02   -0.43114E+01  4800   0.845E+00    0.149E+01
RMM:  15    -0.115122603689E+04    0.14605E+01   -0.10567E+01  4800   0.448E+00    0.502E+00
RMM:  16    -0.115107178812E+04    0.15425E+00   -0.79952E-01  4909   0.143E+00    0.141E+00
RMM:  17    -0.115107297292E+04   -0.11848E-02   -0.16935E-01  4826   0.676E-01    0.483E-01
RMM:  18    -0.115107272738E+04    0.24555E-03   -0.45089E-02  4814   0.285E-01    0.260E-01
RMM:  19    -0.115107434918E+04   -0.16218E-02   -0.11832E-02  4923   0.149E-01    0.139E-01
RMM:  20    -0.115107683998E+04   -0.24908E-02   -0.75777E-03  4823   0.112E-01    0.956E-02
RMM:  21    -0.115107832872E+04   -0.14887E-02   -0.41425E-03  4808   0.747E-02    0.569E-02
RMM:  22    -0.115108038366E+04   -0.20549E-02   -0.12474E-03  4800   0.468E-02    0.257E-02
RMM:  23    -0.115108095746E+04   -0.57379E-03   -0.26957E-04  4899   0.207E-02    0.149E-02
RMM:  24    -0.115108139011E+04   -0.43265E-03   -0.73397E-05  4802   0.116E-02    0.816E-03
RMM:  25    -0.115108164461E+04   -0.25450E-03   -0.39954E-05  4752   0.729E-03    0.515E-03
RMM:  26    -0.115108172846E+04   -0.83848E-04   -0.17122E-05  4266   0.404E-03    0.244E-03
RMM:  27    -0.115108175071E+04   -0.22247E-04   -0.53471E-06  3549   0.223E-03    0.132E-03
RMM:  28    -0.115108175507E+04   -0.43583E-05   -0.99432E-07  3018   0.124E-03    0.547E-04
RMM:  29    -0.115108175633E+04   -0.12619E-05   -0.30219E-07  2642   0.766E-04    0.405E-04
RMM:  30    -0.115108175700E+04   -0.67078E-06   -0.15760E-07  2364   0.563E-04
   1 F= -.11622607E+04 E0= -.11622607E+04  d E =-.116226E+04
