 vasp.6.0.8 29Jun18 (build Mar 14 2019 11:44:20) complex                        
  
 executed on             LinuxIFC date 2021.01.08  10:45:08
 running   64 mpi-ranks, with    1 threads/rank
 distrk:  each k-point on   64 cores,    1 groups
 distr:  one band on NCORES_PER_BAND=   4 cores,   16 groups


--------------------------------------------------------------------------------------------------------


 INCAR:
 POTCAR:    PAW_PBE C 08Apr2002                   
 POTCAR:    PAW_PBE Zn 06Sep2000                  
 POTCAR:    PAW_PBE H 15Jun2001                   
 POTCAR:    PAW_PBE N 08Apr2002                   
 POTCAR:    PAW_PBE O 08Apr2002                   
 POTCAR:    PAW_PBE C 08Apr2002                   
   VRHFIN =C: s2p2                                                              
   LEXCH  = PE                                                                  
   EATOM  =   147.1560 eV,   10.8157 Ry                                         
                                                                                
   TITEL  = PAW_PBE C 08Apr2002                                                 
   LULTRA =        F    use ultrasoft PP ?                                      
   IUNSCR =        1    unscreen: 0-lin 1-nonlin 2-no                           
   RPACOR =    1.200    partial core radius                                     
   POMASS =   12.011; ZVAL   =    4.000    mass and valenz                      
   RCORE  =    1.500    outmost cutoff radius                                   
   RWIGS  =    1.630; RWIGS  =    0.863    wigner-seitz radius (au A)           
   ENMAX  =  400.000; ENMIN  =  300.000 eV                                      
   ICORE  =        2    local potential                                         
   LCOR   =        T    correct aug charges                                     
   LPAW   =        T    paw PP                                                  
   EAUG   =  644.873                                                            
   DEXC   =    0.000                                                            
   RMAX   =    1.529    core radius for proj-oper                               
   RAUG   =    1.300    factor for augmentation sphere                          
   RDEP   =    1.501    radius for radial grids                                 
   RDEPT  =    1.300    core radius for aug-charge                              
                                                                                
   Atomic configuration                                                         
    4 entries                                                                   
     n  l   j            E        occ.                                          
     1  0  0.50      -273.3789   2.0000                                         
     2  0  0.50       -13.7508   2.0000                                         
     2  1  0.50        -5.2854   2.0000                                         
     3  2  1.50        -5.4423   0.0000                                         
   Description                                                                  
     l       E           TYP  RCUT    TYP  RCUT                                 
     0    -13.7508458     23  1.200                                             
     0     -8.2022199     23  1.200                                             
     1     -5.2854383     23  1.500                                             
     1     34.0145650     23  1.500                                             
     2     -5.4423304      7  1.500                                             
  local pseudopotential read in
  partial core-charges read in
  partial kinetic energy density read in
  atomic valenz-charges read in
  non local Contribution for L=           0  read in
    real space projection operators read in
  non local Contribution for L=           0  read in
    real space projection operators read in
  non local Contribution for L=           1  read in
    real space projection operators read in
  non local Contribution for L=           1  read in
    real space projection operators read in
    PAW grid and wavefunctions read in
 
   number of l-projection  operators is LMAX  =           4
   number of lm-projection operators is LMMAX =           8
 
 POTCAR:    PAW_PBE Zn 06Sep2000                  
   VRHFIN =Zn: d10 p2                                                           
   LEXCH  = PE                                                                  
   EATOM  =  1748.8345 eV,  128.5357 Ry                                         
                                                                                
   TITEL  = PAW_PBE Zn 06Sep2000                                                
   LULTRA =        F    use ultrasoft PP ?                                      
   IUNSCR =        1    unscreen: 0-lin 1-nonlin 2-no                           
   RPACOR =    2.000    partial core radius                                     
   POMASS =   65.390; ZVAL   =   12.000    mass and valenz                      
   RCORE  =    2.300    outmost cutoff radius                                   
   RWIGS  =    2.400; RWIGS  =    1.270    wigner-seitz radius (au A)           
   ENMAX  =  276.723; ENMIN  =  207.542 eV                                      
   RCLOC  =    1.828    cutoff for local pot                                    
   LCOR   =        T    correct aug charges                                     
   LPAW   =        T    paw PP                                                  
   EAUG   =  575.892                                                            
   DEXC   =    0.000                                                            
   RMAX   =    2.347    core radius for proj-oper                               
   RAUG   =    1.300    factor for augmentation sphere                          
   RDEP   =    2.324    radius for radial grids                                 
   RDEPT  =    1.788    core radius for aug-charge                              
                                                                                
   Atomic configuration                                                         
    9 entries                                                                   
     n  l   j            E        occ.                                          
     1  0  0.50     -9524.6913   2.0000                                         
     2  0  0.50     -1158.1882   2.0000                                         
     2  1  1.50     -1003.8506   6.0000                                         
     3  0  0.50      -129.2194   2.0000                                         
     3  1  1.50       -83.3890   6.0000                                         
     3  2  2.50       -10.1410  10.0000                                         
     4  0  0.50        -5.9785   2.0000                                         
     4  1  0.50        -4.0817   0.0000                                         
     4  3  2.50        -1.3606   0.0000                                         
   Description                                                                  
     l       E           TYP  RCUT    TYP  RCUT                                 
     2    -10.1410010     23  2.300                                             
     2    -11.5015836     23  2.300                                             
     0     -5.9785163     23  2.300                                             
     0      1.1858015     23  2.300                                             
     1     -2.7211652     23  2.300                                             
     1     13.2444212     23  2.300                                             
  local pseudopotential read in
  partial core-charges read in
  partial kinetic energy density read in
  atomic valenz-charges read in
  non local Contribution for L=           2  read in
    real space projection operators read in
  non local Contribution for L=           2  read in
    real space projection operators read in
  non local Contribution for L=           0  read in
    real space projection operators read in
  non local Contribution for L=           0  read in
    real space projection operators read in
  non local Contribution for L=           1  read in
    real space projection operators read in
  non local Contribution for L=           1  read in
    real space projection operators read in
    PAW grid and wavefunctions read in
 
   number of l-projection  operators is LMAX  =           6
   number of lm-projection operators is LMMAX =          18
 
 POTCAR:    PAW_PBE H 15Jun2001                   
   VRHFIN =H: ultrasoft test                                                    
   LEXCH  = PE                                                                  
   EATOM  =    12.4884 eV,    0.9179 Ry                                         
                                                                                
   TITEL  = PAW_PBE H 15Jun2001                                                 
   LULTRA =        F    use ultrasoft PP ?                                      
   IUNSCR =        0    unscreen: 0-lin 1-nonlin 2-no                           
   RPACOR =    0.000    partial core radius                                     
   POMASS =    1.000; ZVAL   =    1.000    mass and valenz                      
   RCORE  =    1.100    outmost cutoff radius                                   
   RWIGS  =    0.700; RWIGS  =    0.370    wigner-seitz radius (au A)           
   ENMAX  =  250.000; ENMIN  =  200.000 eV                                      
   RCLOC  =    0.701    cutoff for local pot                                    
   LCOR   =        T    correct aug charges                                     
   LPAW   =        T    paw PP                                                  
   EAUG   =  400.000                                                            
   RMAX   =    1.123    core radius for proj-oper                               
   RAUG   =    1.200    factor for augmentation sphere                          
   RDEP   =    1.112    radius for radial grids                                 
   RDEPT  =    0.926    core radius for aug-charge                              
                                                                                
   Atomic configuration                                                         
    2 entries                                                                   
     n  l   j            E        occ.                                          
     1  0  0.50        -6.4927   1.0000                                         
     2  1  0.50        -3.4015   0.0000                                         
   Description                                                                  
     l       E           TYP  RCUT    TYP  RCUT                                 
     0     -6.4927494     23  1.100                                             
     0      6.8029130     23  1.100                                             
     1     -4.0817478     23  1.100                                             
  local pseudopotential read in
  atomic valenz-charges read in
  non local Contribution for L=           0  read in
    real space projection operators read in
  non local Contribution for L=           0  read in
    real space projection operators read in
  non local Contribution for L=           1  read in
    real space projection operators read in
    PAW grid and wavefunctions read in
 
   number of l-projection  operators is LMAX  =           3
   number of lm-projection operators is LMMAX =           5
 
 POTCAR:    PAW_PBE N 08Apr2002                   
   VRHFIN =N: s2p3                                                              
   LEXCH  = PE                                                                  
   EATOM  =   264.5486 eV,   19.4438 Ry                                         
                                                                                
   TITEL  = PAW_PBE N 08Apr2002                                                 
   LULTRA =        F    use ultrasoft PP ?                                      
   IUNSCR =        1    unscreen: 0-lin 1-nonlin 2-no                           
   RPACOR =    1.200    partial core radius                                     
   POMASS =   14.001; ZVAL   =    5.000    mass and valenz                      
   RCORE  =    1.500    outmost cutoff radius                                   
   RWIGS  =    1.400; RWIGS  =    0.741    wigner-seitz radius (au A)           
   ENMAX  =  400.000; ENMIN  =  300.000 eV                                      
   ICORE  =        2    local potential                                         
   LCOR   =        T    correct aug charges                                     
   LPAW   =        T    paw PP                                                  
   EAUG   =  627.112                                                            
   DEXC   =    0.000                                                            
   RMAX   =    1.529    core radius for proj-oper                               
   RAUG   =    1.300    factor for augmentation sphere                          
   RDEP   =    1.514    radius for radial grids                                 
   RDEPT  =    1.338    core radius for aug-charge                              
                                                                                
   Atomic configuration                                                         
    4 entries                                                                   
     n  l   j            E        occ.                                          
     1  0  0.50      -384.7179   2.0000                                         
     2  0  0.50       -18.5828   2.0000                                         
     2  1  0.50        -7.0898   3.0000                                         
     3  2  1.50        -6.8029   0.0000                                         
   Description                                                                  
     l       E           TYP  RCUT    TYP  RCUT                                 
     0    -18.5828119     23  1.200                                             
     0    -13.5018863     23  1.200                                             
     1     -7.0897853     23  1.500                                             
     1      9.5240782     23  1.500                                             
     2     -6.8029130      7  1.500                                             
  local pseudopotential read in
  partial core-charges read in
  partial kinetic energy density read in
  atomic valenz-charges read in
  non local Contribution for L=           0  read in
    real space projection operators read in
  non local Contribution for L=           0  read in
    real space projection operators read in
  non local Contribution for L=           1  read in
    real space projection operators read in
  non local Contribution for L=           1  read in
    real space projection operators read in
    PAW grid and wavefunctions read in
 
   number of l-projection  operators is LMAX  =           4
   number of lm-projection operators is LMMAX =           8
 
 POTCAR:    PAW_PBE O 08Apr2002                   
   VRHFIN =O: s2p4                                                              
   LEXCH  = PE                                                                  
   EATOM  =   432.3788 eV,   31.7789 Ry                                         
                                                                                
   TITEL  = PAW_PBE O 08Apr2002                                                 
   LULTRA =        F    use ultrasoft PP ?                                      
   IUNSCR =        1    unscreen: 0-lin 1-nonlin 2-no                           
   RPACOR =    1.200    partial core radius                                     
   POMASS =   16.000; ZVAL   =    6.000    mass and valenz                      
   RCORE  =    1.520    outmost cutoff radius                                   
   RWIGS  =    1.550; RWIGS  =    0.820    wigner-seitz radius (au A)           
   ENMAX  =  400.000; ENMIN  =  300.000 eV                                      
   ICORE  =        2    local potential                                         
   LCOR   =        T    correct aug charges                                     
   LPAW   =        T    paw PP                                                  
   EAUG   =  605.392                                                            
   DEXC   =    0.000                                                            
   RMAX   =    1.553    core radius for proj-oper                               
   RAUG   =    1.300    factor for augmentation sphere                          
   RDEP   =    1.550    radius for radial grids                                 
   RDEPT  =    1.329    core radius for aug-charge                              
                                                                                
   Atomic configuration                                                         
    4 entries                                                                   
     n  l   j            E        occ.                                          
     1  0  0.50      -514.6923   2.0000                                         
     2  0  0.50       -23.9615   2.0000                                         
     2  1  0.50        -9.0305   4.0000                                         
     3  2  1.50        -9.5241   0.0000                                         
   Description                                                                  
     l       E           TYP  RCUT    TYP  RCUT                                 
     0    -23.9615318     23  1.200                                             
     0     -9.5240782     23  1.200                                             
     1     -9.0304911     23  1.520                                             
     1      8.1634956     23  1.520                                             
     2     -9.5240782      7  1.500                                             
  local pseudopotential read in
  partial core-charges read in
  partial kinetic energy density read in
  kinetic energy density of atom read in
  atomic valenz-charges read in
  non local Contribution for L=           0  read in
    real space projection operators read in
  non local Contribution for L=           0  read in
    real space projection operators read in
  non local Contribution for L=           1  read in
    real space projection operators read in
  non local Contribution for L=           1  read in
    real space projection operators read in
    PAW grid and wavefunctions read in
 
   number of l-projection  operators is LMAX  =           4
   number of lm-projection operators is LMMAX =           8
 
 Optimization of the real space projectors (new method)

 maximal supplied QI-value         = 25.13
 optimisation between [QCUT,QGAM] = [ 12.32, 24.88] = [ 42.47,173.37] Ry 
 Optimized for a Real-space Cutoff    1.06 Angstroem

   l    n(q)    QCUT    max X(q) W(low)/X(q) W(high)/X(q)  e(spline) 
   0      8    12.315   115.676    0.34E-03    0.18E-03    0.23E-06
   0      8    12.315    87.132    0.34E-03    0.18E-03    0.22E-06
   1      7    12.315     4.429    0.45E-03    0.12E-03    0.18E-06
   1      7    12.315     2.733    0.35E-03    0.97E-04    0.15E-06
 Optimization of the real space projectors (new method)

 maximal supplied QI-value         = 16.25
 optimisation between [QCUT,QGAM] = [ 12.51, 25.03] = [ 43.85,175.40] Ry 
 Optimized for a Real-space Cutoff    1.31 Angstroem

   l    n(q)    QCUT    max X(q) W(low)/X(q) W(high)/X(q)  e(spline) 
   2      9    12.514    46.356    0.36E-03    0.54E-03    0.48E-06
   2      9    12.514    41.843    0.37E-03    0.56E-03    0.49E-06
   0     10    12.514    48.958    0.13E-03    0.28E-03    0.23E-06
   0     10    12.514    32.776    0.12E-03    0.26E-03    0.22E-06
   1      9    12.514    17.787    0.44E-03    0.44E-04    0.36E-06
   1      9    12.514    14.435    0.39E-03    0.39E-04    0.32E-06
 Optimization of the real space projectors (new method)

 maximal supplied QI-value         = 34.20
 optimisation between [QCUT,QGAM] = [ 12.31, 24.97] = [ 42.46,174.58] Ry 
 Optimized for a Real-space Cutoff    1.00 Angstroem

   l    n(q)    QCUT    max X(q) W(low)/X(q) W(high)/X(q)  e(spline) 
   0      7    12.313    19.460    0.14E-03    0.42E-03    0.16E-06
   0      7    12.313    12.209    0.12E-03    0.40E-03    0.16E-06
   1      7    12.313     4.655    0.33E-03    0.59E-03    0.89E-07
 Optimization of the real space projectors (new method)

 maximal supplied QI-value         = 25.13
 optimisation between [QCUT,QGAM] = [ 12.32, 24.88] = [ 42.47,173.37] Ry 
 Optimized for a Real-space Cutoff    1.20 Angstroem

   l    n(q)    QCUT    max X(q) W(low)/X(q) W(high)/X(q)  e(spline) 
   0      9    12.315    79.467    0.14E-03    0.22E-04    0.37E-06
   0      9    12.315    66.151    0.14E-03    0.23E-04    0.36E-06
   1      8    12.315    22.077    0.30E-03    0.54E-03    0.45E-06
   1      8    12.315    15.894    0.30E-03    0.55E-03    0.45E-06
 Optimization of the real space projectors (new method)

 maximal supplied QI-value         = 24.76
 optimisation between [QCUT,QGAM] = [ 12.38, 25.00] = [ 42.90,175.06] Ry 
 Optimized for a Real-space Cutoff    1.13 Angstroem

   l    n(q)    QCUT    max X(q) W(low)/X(q) W(high)/X(q)  e(spline) 
   0      8    12.378    20.381    0.16E-03    0.54E-05    0.27E-06
   0      8    12.378    15.268    0.17E-03    0.61E-05    0.29E-06
   1      8    12.378     5.964    0.38E-03    0.23E-03    0.28E-06
   1      8    12.378     5.382    0.33E-03    0.20E-03    0.25E-06
  PAW_PBE C 08Apr2002                   :
 energy of atom  1       EATOM= -147.1560
 kinetic energy error for atom=    0.0057 (will be added to EATOM!!)
  PAW_PBE Zn 06Sep2000                  :
 energy of atom  2       EATOM=-1748.8345
 kinetic energy error for atom=    0.0020 (will be added to EATOM!!)
  PAW_PBE H 15Jun2001                   :
 energy of atom  3       EATOM=  -12.4884
 kinetic energy error for atom=    0.0004 (will be added to EATOM!!)
  PAW_PBE N 08Apr2002                   :
 energy of atom  4       EATOM= -264.5486
 kinetic energy error for atom=    0.0103 (will be added to EATOM!!)
  PAW_PBE O 08Apr2002                   :
 energy of atom  5       EATOM= -432.3788
 kinetic energy error for atom=    0.0168 (will be added to EATOM!!)
 
 
 POSCAR: Zn_H
  positions in direct lattice
  velocities in cartesian coordinates
 exchange correlation table for  LEXCH =        8
   RHO(1)=    0.500       N(1)  =     2000
   RHO(2)=  100.500       N(2)  =     4000
 


--------------------------------------------------------------------------------------------------------


 ion  position               nearest neighbor table
   1  0.919  0.958  0.131- 107 1.08 117 1.34  65 1.40
   2  0.831  0.952  0.416- 112 1.09 118 1.35  65 1.40
   3  0.919  0.798  0.915- 116 1.08 119 1.34  66 1.40
   4  0.581  0.458  0.630- 110 1.08 120 1.34  67 1.40
   5  0.669  0.304  0.129- 111 1.09 121 1.35  68 1.40
   6  0.169  0.804  0.129- 115 1.09 122 1.35  69 1.40
   7  0.669  0.452  0.915- 101 1.09 123 1.35  67 1.40
   8  0.581  0.298  0.414- 113 1.08 124 1.34  68 1.40
   9  0.331  0.452  0.415- 114 1.09 125 1.35  70 1.40
  10  0.081  0.798  0.414- 104 1.08 126 1.34  69 1.40
  11  0.169  0.952  0.915- 105 1.09 127 1.35  71 1.40
  12  0.331  0.304  0.628- 102 1.09 128 1.35  72 1.40
  13  0.831  0.804  0.629- 108 1.09 129 1.35  66 1.40
  14  0.081  0.958  0.631- 109 1.08 130 1.34  71 1.40
  15  0.419  0.297  0.914- 106 1.08 131 1.34  72 1.40
  16  0.419  0.458  0.130- 103 1.08 132 1.34  70 1.40
  17  0.748  0.032  0.124- 141 1.23 133 1.42  33 1.48
  18  0.865  0.051  0.431- 142 1.23 133 1.41  34 1.48
  19  0.866  0.705  0.615- 143 1.23 134 1.41  35 1.48
  20  0.635  0.551  0.930- 144 1.23 135 1.41  36 1.48
  21  0.634  0.205  0.115- 145 1.23 136 1.41  37 1.48
  22  0.251  0.724  0.421- 146 1.23 137 1.42  38 1.48
  23  0.752  0.532  0.624- 147 1.23 135 1.42  39 1.48
  24  0.751  0.224  0.421- 148 1.23 136 1.42  40 1.48
  25  0.248  0.532  0.123- 149 1.23 138 1.42  41 1.48
  26  0.134  0.705  0.115- 150 1.23 137 1.41  42 1.48
  27  0.135  0.051  0.930- 151 1.23 139 1.41  43 1.48
  28  0.366  0.205  0.615- 152 1.23 140 1.41  44 1.48
  29  0.748  0.724  0.922- 153 1.23 134 1.42  45 1.48
  30  0.252  0.032  0.624- 154 1.23 139 1.42  46 1.48
  31  0.248  0.224  0.921- 155 1.23 140 1.42  47 1.49
  32  0.365  0.551  0.430- 156 1.23 138 1.41  48 1.48
  33  0.719  0.076  0.125-  49 1.39  73 1.42  17 1.48
  34  0.834  0.095  0.427-  50 1.39  73 1.42  18 1.48
  35  0.835  0.661  0.620-  51 1.39  74 1.42  19 1.48
  36  0.666  0.595  0.926-  52 1.39  75 1.42  20 1.48
  37  0.665  0.161  0.120-  53 1.39  76 1.42  21 1.48
  38  0.280  0.679  0.421-  54 1.39  77 1.42  22 1.48
  39  0.780  0.576  0.625-  55 1.39  75 1.42  23 1.48
  40  0.779  0.179  0.421-  56 1.39  76 1.42  24 1.48
  41  0.220  0.576  0.125-  57 1.39  78 1.42  25 1.48
  42  0.165  0.661  0.120-  58 1.39  77 1.42  26 1.48
  43  0.166  0.095  0.926-  59 1.39  79 1.42  27 1.48
  44  0.335  0.161  0.620-  60 1.39  80 1.42  28 1.48
  45  0.720  0.679  0.921-  61 1.39  74 1.42  29 1.48
  46  0.280  0.076  0.625-  62 1.39  79 1.42  30 1.48
  47  0.220  0.179  0.920-  63 1.39  80 1.42  31 1.49
  48  0.334  0.595  0.426-  64 1.39  78 1.42  32 1.48
  49  0.650  0.089  0.977-  88 1.09  33 1.39  53 1.41
  50  0.875  0.125  0.572-  99 1.09  34 1.39  56 1.41
  51  0.877  0.631  0.475-  93 1.09  35 1.39  55 1.41
  52  0.624  0.625  0.071-  90 1.09  36 1.39  61 1.41
  53  0.623  0.131  0.975-  98 1.09  37 1.39  49 1.41
  54  0.349  0.667  0.568-  96 1.09  38 1.39  64 1.41
  55  0.850  0.589  0.477-  86 1.09  39 1.39  51 1.41
  56  0.848  0.167  0.569-  87 1.09  40 1.39  50 1.41
  57  0.150  0.589  0.977-  95 1.09  41 1.39  58 1.41
  58  0.123  0.631  0.975-  91 1.09  42 1.39  57 1.41
  59  0.124  0.125  0.071-  92 1.09  43 1.39  63 1.41
  60  0.377  0.131  0.475-  85 1.09  44 1.39  62 1.41
  61  0.651  0.667  0.069-  89 1.09  45 1.39  52 1.41
  62  0.350  0.089  0.477- 100 1.09  46 1.39  60 1.41
  63  0.151  0.167  0.068-  94 1.09  47 1.39  59 1.41
  64  0.376  0.625  0.571-  97 1.09  48 1.39  54 1.41
  65  0.850  0.980  0.277-   1 1.40   2 1.40 133 1.42
  66  0.850  0.776  0.768-   3 1.40  13 1.40 134 1.42
  67  0.649  0.480  0.776-   4 1.40   7 1.40 135 1.42
  68  0.650  0.276  0.268-   8 1.40   5 1.40 136 1.42
  69  0.150  0.776  0.268-  10 1.40   6 1.40 137 1.42
  70  0.351  0.480  0.276-  16 1.40   9 1.40 138 1.42
  71  0.149  0.980  0.777-  14 1.40  11 1.40 139 1.42
  72  0.350  0.276  0.767-  15 1.40  12 1.40 140 1.42
  73  0.763  0.107  0.275-  33 1.42  34 1.42  76 1.43
  74  0.764  0.649  0.771-  45 1.42  35 1.42  75 1.43
  75  0.737  0.607  0.774-  39 1.42  36 1.42  74 1.43
  76  0.735  0.149  0.272-  40 1.42  37 1.42  73 1.43
  77  0.236  0.649  0.271-  38 1.42  42 1.42  78 1.43
  78  0.263  0.607  0.274-  41 1.42  48 1.42  77 1.43
  79  0.237  0.107  0.774-  46 1.42  43 1.42  80 1.43
  80  0.264  0.149  0.771-  47 1.42  44 1.42  79 1.43
  81  0.039  0.878  0.022- 127 1.99 122 1.99 117 2.01 119 2.02
  82  0.961  0.878  0.522- 118 1.99 129 1.99 130 2.02 126 2.02
  83  0.461  0.378  0.522- 125 1.99 128 1.99 120 2.01 124 2.02
  84  0.539  0.378  0.022- 123 1.99 121 1.99 131 2.02 132 2.02
  85  0.431  0.140  0.359-  60 1.09
  86  0.882  0.565  0.364-  55 1.09
  87  0.881  0.191  0.682-  56 1.09
  88  0.618  0.065  0.864-  49 1.09
  89  0.619  0.691  0.182-  61 1.09
  90  0.570  0.615  0.187-  52 1.09
  91  0.068  0.640  0.860-  58 1.09
  92  0.069  0.115  0.186-  59 1.09
  93  0.931  0.640  0.359-  51 1.09
  94  0.118  0.191  0.182-  63 1.09
  95  0.118  0.565  0.864-  57 1.09
  96  0.381  0.691  0.682-  54 1.09
  97  0.431  0.615  0.686-  64 1.09
  98  0.568  0.140  0.859-  53 1.09
  99  0.930  0.115  0.687-  50 1.09
 100  0.382  0.065  0.364-  62 1.09
 101  0.715  0.456  0.054-   7 1.09
 102  0.285  0.300  0.489-  12 1.09
 103  0.454  0.469  0.997-  16 1.08
 104  0.047  0.787  0.547-  10 1.08
 105  0.215  0.956  0.054-  11 1.09
 106  0.453  0.287  0.046-  15 1.08
 107  0.953  0.969  0.998-   1 1.08
 108  0.784  0.800  0.490-  13 1.09
 109  0.046  0.969  0.498-  14 1.08
 110  0.546  0.469  0.498-   4 1.08
 111  0.715  0.300  0.989-   5 1.09
 112  0.784  0.956  0.555-   2 1.09
 113  0.547  0.287  0.547-   8 1.08
 114  0.285  0.456  0.554-   9 1.09
 115  0.215  0.800  0.990-   6 1.09
 116  0.953  0.787  0.047-   3 1.08
 117  0.940  0.920  0.180-   1 1.34 118 1.37  81 2.01
 118  0.885  0.916  0.355-   2 1.35 117 1.37  82 1.99
 119  0.940  0.836  0.865-   3 1.34 129 1.37  81 2.02
 120  0.560  0.420  0.679-   4 1.34 123 1.37  83 2.01
 121  0.614  0.340  0.189-   5 1.35 124 1.37  84 1.99
 122  0.114  0.840  0.190-   6 1.35 126 1.37  81 1.99
 123  0.614  0.416  0.854-   7 1.35 120 1.37  84 1.99
 124  0.560  0.336  0.364-   8 1.34 121 1.37  83 2.02
 125  0.386  0.416  0.354-   9 1.35 132 1.37  83 1.99
 126  0.060  0.836  0.365-  10 1.34 122 1.37  82 2.02
 127  0.114  0.916  0.855-  11 1.35 130 1.37  81 1.99
 128  0.385  0.340  0.689-  12 1.35 131 1.37  83 1.99
 129  0.885  0.840  0.690-  13 1.35 119 1.37  82 1.99
 130  0.060  0.920  0.680-  14 1.34 127 1.37  82 2.02
 131  0.440  0.335  0.864-  15 1.34 128 1.37  84 2.02
 132  0.440  0.420  0.179-  16 1.34 125 1.37  84 2.02
 133  0.816  0.022  0.283-  18 1.41  17 1.42  65 1.42
 134  0.816  0.734  0.763-  19 1.41  29 1.42  66 1.42
 135  0.684  0.522  0.782-  20 1.41  23 1.42  67 1.42
 136  0.684  0.234  0.262-  21 1.41  24 1.42  68 1.42
 137  0.184  0.734  0.262-  26 1.41  22 1.42  69 1.42
 138  0.316  0.522  0.282-  32 1.41  25 1.42  70 1.42
 139  0.184  0.022  0.783-  27 1.41  30 1.42  71 1.42
 140  0.316  0.234  0.762-  28 1.41  31 1.42  72 1.42
 141  0.714  0.005  0.994-  17 1.23
 142  0.929  0.040  0.556-  18 1.23
 143  0.931  0.716  0.491-  19 1.23
 144  0.570  0.540  0.055-  20 1.23
 145  0.569  0.216  0.990-  21 1.23
 146  0.284  0.751  0.552-  22 1.23
 147  0.785  0.505  0.493-  23 1.23
 148  0.784  0.251  0.552-  24 1.23
 149  0.216  0.505  0.992-  25 1.23
 150  0.069  0.716  0.991-  26 1.23
 151  0.070  0.040  0.055-  27 1.23
 152  0.431  0.216  0.490-  28 1.23
 153  0.715  0.751  0.052-  29 1.23
 154  0.285  0.005  0.493-  30 1.23
 155  0.215  0.251  0.051-  31 1.23
 156  0.430  0.540  0.554-  32 1.23
 

IMPORTANT INFORMATION: All symmetrisations will be switched off!
NOSYMM: (Re-)initialisation of all symmetry stuff for point group C_1.


----------------------------------------------------------------------------------------

                                     Primitive cell                                     

  volume of cell :    2596.2961

  direct lattice vectors                    reciprocal lattice vectors
    11.915918994 -0.000458759  0.000867335     0.083921351 -0.000008086 -0.000022058
     0.002571799 32.406574960 -2.095542256     0.000001060  0.030976055  0.001826665
     0.001735638 -0.398002468  6.749207633    -0.000010456  0.009617668  0.148732700

  length of vectors
    11.915919035 32.474257568  6.760932824     0.083921354  0.031029868  0.149043335

  position of ions in fractional coordinates (direct lattice)
     0.918681805  0.958372851  0.130731871
     0.830690958  0.951737128  0.415657790
     0.918790840  0.797520615  0.914510682
     0.580908097  0.458360727  0.630076174
     0.669021137  0.303950494  0.128567407
     0.168922367  0.804024809  0.128997477
     0.668989290  0.451730267  0.914818934
     0.581104289  0.297515181  0.413815095
     0.331003944  0.451781335  0.414867991
     0.081101663  0.797512425  0.414227758
     0.168898199  0.951784191  0.915324843
     0.330891531  0.303997424  0.628471054
     0.830911878  0.804010754  0.629408743
     0.080812595  0.958368094  0.630510231
     0.418708349  0.297488518  0.913621433
     0.419081256  0.458339090  0.129930830
     0.747536085  0.031887017  0.124411320
     0.864528730  0.050743719  0.430768752
     0.865722560  0.705019243  0.615415757
     0.634846981  0.550746395  0.930116865
     0.634046473  0.204968541  0.115203548
     0.251470803  0.723878878  0.421291838
     0.751977477  0.531932806  0.623752587
     0.751203453  0.223850444  0.421340038
     0.248338093  0.531960529  0.123498878
     0.134226986  0.705008380  0.115340016
     0.134635655  0.050786911  0.930228736
     0.365552091  0.204980861  0.614898024
     0.748433953  0.723860671  0.921584984
     0.251746160  0.031935051  0.623872069
     0.248167230  0.223893217  0.920794768
     0.365396323  0.550787093  0.429770032
     0.719164029  0.076428252  0.125305579
     0.833545339  0.094903165  0.426665527
     0.834912817  0.660848542  0.619577974
     0.665741987  0.594915569  0.926047688
     0.664648770  0.160793551  0.119709720
     0.279723246  0.679327209  0.420606755
     0.780262172  0.576484506  0.624698052
     0.779103477  0.179280911  0.421074780
     0.219746606  0.576488228  0.124807941
     0.164958295  0.660836300  0.119707742
     0.165597470  0.094949694  0.926128801
     0.334919835  0.160812956  0.619554629
     0.720312321  0.679299631  0.920891246
     0.280323889  0.076459817  0.625039442
     0.220085086  0.179332124  0.920447652
     0.334427480  0.594951499  0.425786810
     0.650013792  0.088593353  0.977374421
     0.875490658  0.125065166  0.571620899
     0.876964045  0.630693830  0.474579187
     0.623870578  0.625054646  0.071252425
     0.622677587  0.130624845  0.974754766
     0.349042243  0.667150450  0.568259809
     0.849553983  0.588661195  0.476923444
     0.848241980  0.167106191  0.569001661
     0.150343307  0.588644830  0.977240162
     0.122839099  0.630667092  0.974921583
     0.123512227  0.125128042  0.070927999
     0.377073172  0.130635438  0.474799032
     0.651197143  0.667095579  0.068849913
     0.349679547  0.088607539  0.477293324
     0.150828916  0.167162509  0.068291821
     0.376444873  0.625116808  0.570657817
     0.850092237  0.979502969  0.276997278
     0.850388788  0.776303511  0.768318530
     0.649467647  0.479507143  0.776264075
     0.649504602  0.276270304  0.267619073
     0.149533636  0.776308655  0.267933091
     0.350603443  0.479530629  0.276203379
     0.149351368  0.979534516  0.776665287
     0.350279243  0.276288443  0.767412765
     0.762701718  0.106523685  0.274818802
     0.763989714  0.649222389  0.771362074
     0.736606440  0.606561455  0.774223185
     0.735374280  0.149182261  0.271737344
     0.235973066  0.649228798  0.271320445
     0.263410843  0.606574274  0.274217448
     0.236625206  0.106555890  0.774441103
     0.263947486  0.149213295  0.771309864
     0.038941264  0.877965649  0.022426169
     0.960725871  0.877914576  0.522326010
     0.460833660  0.377917385  0.521712682
     0.539068529  0.377864083  0.021539311
     0.431458534  0.140394788  0.359490141
     0.881782825  0.564804574  0.363557655
     0.880555733  0.190958651  0.682274558
     0.617940261  0.064732204  0.863924822
     0.619045053  0.690926814  0.182434904
     0.569672925  0.615251160  0.186734083
     0.068414858  0.640422639  0.859718062
     0.069081789  0.115363459  0.186179478
     0.931349940  0.640469056  0.359299074
     0.118459482  0.191021135  0.181517165
     0.118244163  0.564784965  0.863823280
     0.381290823  0.690997045  0.681616424
     0.430839935  0.615349287  0.685885076
     0.568461642  0.140388166  0.859265382
     0.929743944  0.115277197  0.686979030
     0.381830856  0.064739839  0.363907032
     0.715450984  0.455907380  0.054023000
     0.284513886  0.299770953  0.489162680
     0.453765846  0.469150509  0.997375844
     0.046605869  0.786727668  0.546989949
     0.215420528  0.955984918  0.054487392
     0.453224346  0.286687302  0.046304260
     0.953300416  0.969203355  0.998184635
     0.784438886  0.799770223  0.490199837
     0.046140999  0.969170129  0.497965141
     0.546241200  0.469200790  0.497624720
     0.715463030  0.299687476  0.989254008
     0.784183143  0.955898103  0.554880221
     0.546584314  0.286754294  0.546618494
     0.284564107  0.455994630  0.554165298
     0.215284557  0.799804117  0.989618295
     0.953287559  0.786729731  0.047220806
     0.940073748  0.920353468  0.180174768
     0.885439435  0.915950179  0.354856717
     0.939985042  0.835539277  0.864886806
     0.559663210  0.420324174  0.679444012
     0.614425979  0.339797628  0.189070549
     0.114315949  0.839854862  0.189736423
     0.614343547  0.415925132  0.854037234
     0.559876605  0.335515973  0.364017397
     0.385548784  0.415946327  0.354074402
     0.059809619  0.835525799  0.364665001
     0.114239237  0.915972728  0.854648175
     0.385495218  0.339825107  0.689119620
     0.885453044  0.839853695  0.690018926
     0.059584329  0.920338415  0.679989100
     0.440006098  0.335496542  0.863980795
     0.440216062  0.420298475  0.179340740
     0.815558309  0.021637133  0.283055890
     0.816216430  0.734132831  0.762568220
     0.683880146  0.521657181  0.782341729
     0.683604307  0.234097963  0.262127269
     0.183754213  0.734138800  0.262258537
     0.316262697  0.521686511  0.282221430
     0.183764259  0.021680408  0.782633162
     0.316016778  0.234128812  0.761797091
     0.714455456  0.005062675  0.993691348
     0.929387628  0.039798779  0.555673137
     0.930822674  0.715959890  0.490783964
     0.570014852  0.539782037  0.055101176
     0.569078696  0.215909713  0.990452451
     0.284448829  0.750717581  0.552011348
     0.785230500  0.505115767  0.493104916
     0.784340964  0.250706112  0.551853660
     0.215500759  0.505165208  0.992433208
     0.069174481  0.715944247  0.990704299
     0.069658804  0.039836508  0.055011339
     0.430548227  0.215892258  0.490036245
     0.715339433  0.750685493  0.052318265
     0.284608565  0.005119851  0.492871534
     0.214970362  0.250749928  0.051275999
     0.430369070  0.539832403  0.554477994

  ion indices of the primitive-cell ions
   primitive index   ion index
                 1           1
                 2           2
                 3           3
                 4           4
                 5           5
                 6           6
                 7           7
                 8           8
                 9           9
                10          10
                11          11
                12          12
                13          13
                14          14
                15          15
                16          16
                17          17
                18          18
                19          19
                20          20
                21          21
                22          22
                23          23
                24          24
                25          25
                26          26
                27          27
                28          28
                29          29
                30          30
                31          31
                32          32
                33          33
                34          34
                35          35
                36          36
                37          37
                38          38
                39          39
                40          40
                41          41
                42          42
                43          43
                44          44
                45          45
                46          46
                47          47
                48          48
                49          49
                50          50
                51          51
                52          52
                53          53
                54          54
                55          55
                56          56
                57          57
                58          58
                59          59
                60          60
                61          61
                62          62
                63          63
                64          64
                65          65
                66          66
                67          67
                68          68
                69          69
                70          70
                71          71
                72          72
                73          73
                74          74
                75          75
                76          76
                77          77
                78          78
                79          79
                80          80
                81          81
                82          82
                83          83
                84          84
                85          85
                86          86
                87          87
                88          88
                89          89
                90          90
                91          91
                92          92
                93          93
                94          94
                95          95
                96          96
                97          97
                98          98
                99          99
               100         100
               101         101
               102         102
               103         103
               104         104
               105         105
               106         106
               107         107
               108         108
               109         109
               110         110
               111         111
               112         112
               113         113
               114         114
               115         115
               116         116
               117         117
               118         118
               119         119
               120         120
               121         121
               122         122
               123         123
               124         124
               125         125
               126         126
               127         127
               128         128
               129         129
               130         130
               131         131
               132         132
               133         133
               134         134
               135         135
               136         136
               137         137
               138         138
               139         139
               140         140
               141         141
               142         142
               143         143
               144         144
               145         145
               146         146
               147         147
               148         148
               149         149
               150         150
               151         151
               152         152
               153         153
               154         154
               155         155
               156         156

----------------------------------------------------------------------------------------

 
 

Automatic generation of k-mesh.
 generate k-points for:    2    1    4
Space group operators:
 irot       det(A)        alpha          n_x          n_y          n_z        tau_x        tau_y        tau_z
    1     1.000000     0.000000     1.000000     0.000000     0.000000     0.000000     0.000000     0.000000
 
 Subroutine IBZKPT returns following result:
 ===========================================
 
 Found      6 irreducible k-points:
 
 Following reciprocal coordinates:
            Coordinates               Weight
  0.000000  0.000000  0.000000      1.000000
  0.500000 -0.000000 -0.000000      1.000000
 -0.000000  0.000000  0.250000      2.000000
  0.500000  0.000000  0.250000      2.000000
 -0.000000  0.000000  0.500000      1.000000
  0.500000  0.000000  0.500000      1.000000
 
 Following cartesian coordinates:
            Coordinates               Weight
  0.000000  0.000000  0.000000      1.000000
  0.041961 -0.000004 -0.000011      1.000000
 -0.000003  0.002404  0.037183      2.000000
  0.041958  0.002400  0.037172      2.000000
 -0.000005  0.004809  0.074366      1.000000
  0.041955  0.004805  0.074355      1.000000
 


--------------------------------------------------------------------------------------------------------




 Dimension of arrays:
   k-points           NKPTS =      6   k-points in BZ     NKDIM =      6   number of bands    NBANDS=    400
   number of dos      NEDOS =    301   number of ions     NIONS =    156
   non local maximal  LDIM  =      6   non local SUM 2l+1 LMDIM =     18
   total plane-waves  NPLWV = 592704
   max r-space proj   IRMAX =   2183   max aug-charges    IRDMAX=   7003
   dimension x,y,z NGX =    72 NGY =  196 NGZ =   42
   dimension x,y,z NGXF=   144 NGYF=  392 NGZF=   84
   support grid    NGXF=   144 NGYF=  392 NGZF=   84
   ions per type =              80   4  32  24  16
   NGX,Y,Z   is equivalent  to a cutoff of  10.05, 10.03, 10.33 a.u.
   NGXF,Y,Z  is equivalent  to a cutoff of  20.09, 20.07, 20.65 a.u.

 SYSTEM =  flex_MOF                                
 POSCAR =  Zn_H                                    

 Startparameter for this run:
   NWRITE =      2    write-flag & timer
   PREC   = normal    normal or accurate (medium, high low for compatibility)
   ISTART =      0    job   : 0-new  1-cont  2-samecut
   ICHARG =      2    charge: 1-file 2-atom 10-const
   ISPIN  =      1    spin polarized calculation?
   LNONCOLLINEAR =      F non collinear calculations
   LSORBIT =      F    spin-orbit coupling
   INIWAV =      1    electr: 0-lowe 1-rand  2-diag
   LASPH  =      F    aspherical Exc in radial PAW
   METAGGA=      F    non-selfconsistent MetaGGA calc.

 Electronic Relaxation 1
   ENCUT  =  600.0 eV  44.10 Ry    6.64 a.u.  23.80 64.86 13.50*2*pi/ulx,y,z
   ENINI  =  600.0     initial cutoff
   ENAUG  =  644.9 eV  augmentation charge cutoff
   NELM   =     80;   NELMIN=  4; NELMDL=-12     # of ELM steps 
   EDIFF  = 0.1E-05   stopping-criterion for ELM
   LREAL  =      T    real-space projection
   NLSPLINE    = F    spline interpolate recip. space projectors
   LCOMPAT=      F    compatible to vasp.4.4
   GGA_COMPAT  = T    GGA compatible to vasp.4.4-vasp.4.6
   LMAXPAW     = -100 max onsite density
   LMAXMIX     =    2 max onsite mixed and CHGCAR
   VOSKOWN=      0    Vosko Wilk Nusair interpolation
   ROPT   =   -0.00050  -0.00050  -0.00050  -0.00050
   ROPT   =   -0.00050
 Ionic relaxation
   EDIFFG = -.1E-01   stopping-criterion for IOM
   NSW    =   1000    number of steps for IOM
   NBLOCK =      1;   KBLOCK =   1000    inner block; outer block 
   IBRION =      2    ionic relax: 0-MD 1-quasi-New 2-CG
   NFREE  =      1    steps in history (QN), initial steepest desc. (CG)
   ISIF   =      4    stress and relaxation
   IWAVPR =     11    prediction:  0-non 1-charg 2-wave 3-comb
   ISYM   =      0    0-nonsym 1-usesym 2-fastsym
   LCORR  =      T    Harris-Foulkes like correction to forces

   POTIM  = 0.5000    time-step for ionic-motion
   TEIN   =    0.0    initial temperature
   TEBEG  =    0.0;   TEEND  =   0.0 temperature during run
   SMASS  =  -3.00    Nose mass-parameter (am)
   estimated Nose-frequenzy (Omega)   =  0.10E-29 period in steps = 0.13E+47 mass=  -0.324E-26a.u.
   SCALEE = 1.0000    scale energy and forces
   NPACO  =    256;   APACO  = 16.0  distance and # of slots for P.C.
   PSTRESS=    0.0 pullay stress

  Mass of Ions in am
   POMASS =  12.01 65.39  1.00 14.00 16.00
  Ionic Valenz
   ZVAL   =   4.00 12.00  1.00  5.00  6.00
  Atomic Wigner-Seitz radii
   RWIGS  =  -1.00 -1.00 -1.00 -1.00 -1.00
  virtual crystal weights 
   VCA    =   1.00  1.00  1.00  1.00  1.00
   NELECT =     616.0000    total number of electrons
   NUPDOWN=      -1.0000    fix difference up-down

 DOS related values:
   EMIN   =  10.00;   EMAX   =-10.00  energy-range for DOS
   EFERMI =   0.00
   ISMEAR =     0;   SIGMA  =   0.05  broadening in eV -4-tet -1-fermi 0-gaus

 Electronic relaxation 2 (details)
   IALGO  =     48    algorithm
   LDIAG  =      T    sub-space diagonalisation (order eigenvalues)
   LSUBROT=      F    optimize rotation matrix (better conditioning)
   TURBO    =      0    0=normal 1=particle mesh
   IRESTART =      0    0=no restart 2=restart with 2 vectors
   NREBOOT  =      0    no. of reboots
   NMIN     =      0    reboot dimension
   EREF     =   0.00    reference energy to select bands
   IMIX   =      4    mixing-type and parameters
     AMIX     =   0.40;   BMIX     =  1.00
     AMIX_MAG =   1.60;   BMIX_MAG =  1.00
     AMIN     =   0.10
     WC   =   100.;   INIMIX=   1;  MIXPRE=   1;  MAXMIX= -45

 Intra band minimization:
   WEIMIN = 0.0010     energy-eigenvalue tresh-hold
   EBREAK =  0.63E-09  absolut break condition
   DEPER  =   0.30     relativ break condition  

   TIME   =   0.40     timestep for ELM

  volume/ion in A,a.u.               =      16.64       112.31
  Fermi-wavevector in a.u.,A,eV,Ry     =   1.013484  1.915207 13.975228  1.027150
  Thomas-Fermi vector in A             =   2.146656
 
 Write flags
   LWAVE        =      T    write WAVECAR
   LDOWNSAMPLE  =      F    k-point downsampling of WAVECAR
   LCHARG       =      T    write CHGCAR
   LVTOT        =      F    write LOCPOT, total local potential
   LVHAR        =      F    write LOCPOT, Hartree potential only
   LELF         =      F    write electronic localiz. function (ELF)
   LORBIT       =      0    0 simple, 1 ext, 2 COOP (PROOUT), +10 PAW based schemes


 Dipole corrections
   LMONO  =      F    monopole corrections only (constant potential shift)
   LDIPOL =      F    correct potential (dipole corrections)
   IDIPOL =      0    1-x, 2-y, 3-z, 4-all directions 
   EPSILON=  1.0000000 bulk dielectric constant

 Exchange correlation treatment:
   GGA     =    PE    GGA type
   LEXCH   =     8    internal setting for exchange type
   VOSKOWN=      0    Vosko Wilk Nusair interpolation
   LHFCALC =     F    Hartree Fock is set to
   LHFONE  =     F    Hartree Fock one center treatment
   AEXX    =    0.0000 exact exchange contribution

 Linear response parameters
   LEPSILON=     F    determine dielectric tensor
   LRPA    =     F    only Hartree local field effects (RPA)
   LNABLA  =     F    use nabla operator in PAW spheres
   LVEL    =     F    velocity operator in full k-point grid
   LINTERFAST=   F  fast interpolation
   KINTER  =     0    interpolate to denser k-point grid
   CSHIFT  =0.1000    complex shift for real part using Kramers Kronig
   OMEGAMAX=  -1.0    maximum frequency
   DEG_THRESHOLD= 0.2000000E-02 threshold for treating states as degnerate
   RTIME   =   -0.100 relaxation time in fs
  (WPLASMAI=    0.000 imaginary part of plasma frequency in eV, 0.658/RTIME)
   DFIELD  = 0.0000000 0.0000000 0.0000000 field for delta impulse in time
 
 Orbital magnetization related:
   ORBITALMAG=     F  switch on orbital magnetization
   LCHIMAG   =     F  perturbation theory with respect to B field
   DQ        =  0.001000  dq finite difference perturbation B field
   LLRAUG    =     F  two centre corrections for induced B field



--------------------------------------------------------------------------------------------------------


 conjugate gradient relaxation of ions
 charge density and potential will be updated during run
 non-spin polarized calculation
 RMM-DIIS sequential band-by-band
 perform sub-space diagonalisation
    before iterative eigenvector-optimisation
 modified Broyden-mixing scheme, WC =      100.0
 initial mixing is a Kerker type mixing with AMIX =  0.4000 and BMIX =      1.0000
 Hartree-type preconditioning will be used
 using additional bands           92
 real space projection scheme for non local part
 use partial core corrections
 calculate Harris-corrections to forces 
   (improved forces if not selfconsistent)
 use gradient corrections 
 use of overlap-Matrix (Vanderbilt PP)
 Gauss-broadening in eV      SIGMA  =   0.05


--------------------------------------------------------------------------------------------------------


  energy-cutoff  :      600.00
  volume of cell :     2596.30
      direct lattice vectors                 reciprocal lattice vectors
    11.915918994 -0.000458759  0.000867335     0.083921351 -0.000008086 -0.000022058
     0.002571799 32.406574960 -2.095542256     0.000001060  0.030976055  0.001826665
     0.001735638 -0.398002468  6.749207633    -0.000010456  0.009617668  0.148732700

  length of vectors
    11.915919035 32.474257568  6.760932824     0.083921354  0.031029868  0.149043335


 
 k-points in units of 2pi/SCALE and weight: read from INCAR                         
   0.00000000  0.00000000  0.00000000       0.125
   0.04196068 -0.00000404 -0.00001103       0.125
  -0.00000261  0.00240442  0.03718317       0.250
   0.04195806  0.00240037  0.03717215       0.250
  -0.00000523  0.00480883  0.07436635       0.125
   0.04195545  0.00480479  0.07435532       0.125
 
 k-points in reciprocal lattice and weights: read from INCAR                         
   0.00000000  0.00000000  0.00000000       0.125
   0.50000000 -0.00000000 -0.00000000       0.125
  -0.00000000  0.00000000  0.25000000       0.250
   0.50000000  0.00000000  0.25000000       0.250
  -0.00000000  0.00000000  0.50000000       0.125
   0.50000000  0.00000000  0.50000000       0.125
 
 position of ions in fractional coordinates (direct lattice) 
   0.91868181  0.95837285  0.13073187
   0.83069096  0.95173713  0.41565779
   0.91879084  0.79752062  0.91451068
   0.58090810  0.45836073  0.63007617
   0.66902114  0.30395049  0.12856741
   0.16892237  0.80402481  0.12899748
   0.66898929  0.45173027  0.91481893
   0.58110429  0.29751518  0.41381510
   0.33100394  0.45178133  0.41486799
   0.08110166  0.79751242  0.41422776
   0.16889820  0.95178419  0.91532484
   0.33089153  0.30399742  0.62847105
   0.83091188  0.80401075  0.62940874
   0.08081259  0.95836809  0.63051023
   0.41870835  0.29748852  0.91362143
   0.41908126  0.45833909  0.12993083
   0.74753608  0.03188702  0.12441132
   0.86452873  0.05074372  0.43076875
   0.86572256  0.70501924  0.61541576
   0.63484698  0.55074639  0.93011687
   0.63404647  0.20496854  0.11520355
   0.25147080  0.72387888  0.42129184
   0.75197748  0.53193281  0.62375259
   0.75120345  0.22385044  0.42134004
   0.24833809  0.53196053  0.12349888
   0.13422699  0.70500838  0.11534002
   0.13463565  0.05078691  0.93022874
   0.36555209  0.20498086  0.61489802
   0.74843395  0.72386067  0.92158498
   0.25174616  0.03193505  0.62387207
   0.24816723  0.22389322  0.92079477
   0.36539632  0.55078709  0.42977003
   0.71916403  0.07642825  0.12530558
   0.83354534  0.09490316  0.42666553
   0.83491282  0.66084854  0.61957797
   0.66574199  0.59491557  0.92604769
   0.66464877  0.16079355  0.11970972
   0.27972325  0.67932721  0.42060675
   0.78026217  0.57648451  0.62469805
   0.77910348  0.17928091  0.42107478
   0.21974661  0.57648823  0.12480794
   0.16495830  0.66083630  0.11970774
   0.16559747  0.09494969  0.92612880
   0.33491983  0.16081296  0.61955463
   0.72031232  0.67929963  0.92089125
   0.28032389  0.07645982  0.62503944
   0.22008509  0.17933212  0.92044765
   0.33442748  0.59495150  0.42578681
   0.65001379  0.08859335  0.97737442
   0.87549066  0.12506517  0.57162090
   0.87696405  0.63069383  0.47457919
   0.62387058  0.62505465  0.07125242
   0.62267759  0.13062485  0.97475477
   0.34904224  0.66715045  0.56825981
   0.84955398  0.58866120  0.47692344
   0.84824198  0.16710619  0.56900166
   0.15034331  0.58864483  0.97724016
   0.12283910  0.63066709  0.97492158
   0.12351223  0.12512804  0.07092800
   0.37707317  0.13063544  0.47479903
   0.65119714  0.66709558  0.06884991
   0.34967955  0.08860754  0.47729332
   0.15082892  0.16716251  0.06829182
   0.37644487  0.62511681  0.57065782
   0.85009224  0.97950297  0.27699728
   0.85038879  0.77630351  0.76831853
   0.64946765  0.47950714  0.77626407
   0.64950460  0.27627030  0.26761907
   0.14953364  0.77630865  0.26793309
   0.35060344  0.47953063  0.27620338
   0.14935137  0.97953452  0.77666529
   0.35027924  0.27628844  0.76741277
   0.76270172  0.10652369  0.27481880
   0.76398971  0.64922239  0.77136207
   0.73660644  0.60656145  0.77422319
   0.73537428  0.14918226  0.27173734
   0.23597307  0.64922880  0.27132045
   0.26341084  0.60657427  0.27421745
   0.23662521  0.10655589  0.77444110
   0.26394749  0.14921329  0.77130986
   0.03894126  0.87796565  0.02242617
   0.96072587  0.87791458  0.52232601
   0.46083366  0.37791738  0.52171268
   0.53906853  0.37786408  0.02153931
   0.43145853  0.14039479  0.35949014
   0.88178283  0.56480457  0.36355765
   0.88055573  0.19095865  0.68227456
   0.61794026  0.06473220  0.86392482
   0.61904505  0.69092681  0.18243490
   0.56967292  0.61525116  0.18673408
   0.06841486  0.64042264  0.85971806
   0.06908179  0.11536346  0.18617948
   0.93134994  0.64046906  0.35929907
   0.11845948  0.19102113  0.18151717
   0.11824416  0.56478497  0.86382328
   0.38129082  0.69099704  0.68161642
   0.43083994  0.61534929  0.68588508
   0.56846164  0.14038817  0.85926538
   0.92974394  0.11527720  0.68697903
   0.38183086  0.06473984  0.36390703
   0.71545098  0.45590738  0.05402300
   0.28451389  0.29977095  0.48916268
   0.45376585  0.46915051  0.99737584
   0.04660587  0.78672767  0.54698995
   0.21542053  0.95598492  0.05448739
   0.45322435  0.28668730  0.04630426
   0.95330042  0.96920336  0.99818463
   0.78443889  0.79977022  0.49019984
   0.04614100  0.96917013  0.49796514
   0.54624120  0.46920079  0.49762472
   0.71546303  0.29968748  0.98925401
   0.78418314  0.95589810  0.55488022
   0.54658431  0.28675429  0.54661849
   0.28456411  0.45599463  0.55416530
   0.21528456  0.79980412  0.98961830
   0.95328756  0.78672973  0.04722081
   0.94007375  0.92035347  0.18017477
   0.88543943  0.91595018  0.35485672
   0.93998504  0.83553928  0.86488681
   0.55966321  0.42032417  0.67944401
   0.61442598  0.33979763  0.18907055
   0.11431595  0.83985486  0.18973642
   0.61434355  0.41592513  0.85403723
   0.55987660  0.33551597  0.36401740
   0.38554878  0.41594633  0.35407440
   0.05980962  0.83552580  0.36466500
   0.11423924  0.91597273  0.85464817
   0.38549522  0.33982511  0.68911962
   0.88545304  0.83985370  0.69001893
   0.05958433  0.92033841  0.67998910
   0.44000610  0.33549654  0.86398080
   0.44021606  0.42029848  0.17934074
   0.81555831  0.02163713  0.28305589
   0.81621643  0.73413283  0.76256822
   0.68388015  0.52165718  0.78234173
   0.68360431  0.23409796  0.26212727
   0.18375421  0.73413880  0.26225854
   0.31626270  0.52168651  0.28222143
   0.18376426  0.02168041  0.78263316
   0.31601678  0.23412881  0.76179709
   0.71445546  0.00506268  0.99369135
   0.92938763  0.03979878  0.55567314
   0.93082267  0.71595989  0.49078396
   0.57001485  0.53978204  0.05510118
   0.56907870  0.21590971  0.99045245
   0.28444883  0.75071758  0.55201135
   0.78523050  0.50511577  0.49310492
   0.78434096  0.25070611  0.55185366
   0.21550076  0.50516521  0.99243321
   0.06917448  0.71594425  0.99070430
   0.06965880  0.03983651  0.05501134
   0.43054823  0.21589226  0.49003625
   0.71533943  0.75068549  0.05231826
   0.28460856  0.00511985  0.49287153
   0.21497036  0.25074993  0.05127600
   0.43036907  0.53983240  0.55447799
 
 position of ions in cartesian coordinates  (Angst):
  10.94962962 31.00512857 -1.12517746
   9.90161527 30.67672668  0.81167584
  10.95187555 25.48051259  4.50178123
   6.92432623 14.60286289  3.29250449
   7.97300653  9.79851740  0.23136728
   2.01515692 26.00427145 -0.81409070
   7.97437174 14.27462365  5.22826331
   6.92587502  9.47648199  2.16997238
   3.94609814 14.47541535  1.85359043
   0.96917084 25.67974531  1.12455850
   2.01661372 30.47968671  4.18335992
   3.94474930  9.60123047  3.60492918
   9.90423881 25.80434733  2.56389246
   0.96651540 30.80644576  2.24721372
   4.99164556  9.27676828  5.54318415
   4.99514257 14.80129503 -0.08317530
   8.90787737  0.98349007  0.77350561
  10.30253248  1.47258650  2.80176198
  10.31876120 22.60192481  2.67692198
   7.56781595 17.47732428  5.12399013
   7.55597350  6.59618620  0.34856236
   2.99909860 23.29064458  1.32668542
   8.96295334 16.98952032  3.09580026
   8.95258648  7.08618720  2.37527488
   2.96075904 17.18975198 -0.28101080
   1.60145122 22.80093971 -0.69880471
   1.60605271  1.27553475  6.17199754
   4.35748351  6.39782901  3.72084544
   8.92173952 23.09070865  4.70373693
   3.00095180  0.78648752  4.14393923
   2.95931458  6.88901989  5.74567262
   4.35619543 17.67790605  1.74672648
   8.56991435  2.42657603  0.68617850
   9.93344334  2.90529020  2.68150360
   9.95152843 21.16886122  2.79754850
   7.93606487 18.91030131  5.00399483
   7.92052220  5.16281858  0.47157255
   3.33563666 21.84713726  1.41544606
   9.30010768 18.43289905  3.00884596
   9.28492583  5.64193405  2.46690614
   2.62018200 18.63223431 -0.36551014
   1.96753699 21.36772144 -0.57673491
   1.97509765  2.70831684  6.05180811
   3.99236652  4.96465919  3.84480298
   8.58652862 21.64692697  4.79240990
   3.34159824  2.22890494  4.05853933
   2.62457482  5.44509852  5.83668516
   3.98727987 19.11072273  1.62726764
   7.74743591  2.48171151  6.41141557
  10.43358953  3.82502552  3.59666814
  10.45227824 20.24934089  1.88214852
   7.43572245 20.22723539 -0.82838991
   7.42180345  3.84486338  6.30563249
   4.16186116 21.39373213  2.43756422
  10.12555813 18.88628671  1.98602779
  10.10900006  5.18848610  3.49086798
   1.79468868 18.68694984  5.36219704
   1.46705482 20.04968285  5.25846519
   1.47220660  4.02668510  0.21660382
   4.49433341  4.04430295  2.93109222
   7.76144754 21.59058169 -0.93267981
   4.16780944  2.68134251  3.03597419
   1.79781359  5.38991488  0.11075039
   4.48828475 20.03059878  2.54185591
  10.13263008 31.63170081 -0.18234041
  10.13649393 24.85115512  3.55950205
   7.74158438 15.22993121  4.23490324
   7.74061922  8.84616328  1.22784393
   1.78429224 25.05079799  0.18167817
   4.17947487 15.42985479  0.85958135
   1.78352598 31.43417549  3.18934885
   4.17594159  8.64796925  4.60075780
   9.08904283  3.34233933  1.63224579
   9.10664802 20.73171953  3.84627248
   8.78024639 19.34809859  3.95495676
   8.76351566  4.72599663  1.52203184
   2.81397653 20.93118725  0.47091631
   3.14081820 19.54773461  0.57987694
   2.82122498  3.14477340  5.00377667
   3.14689932  4.52838751  4.89327659
   0.46631782 28.44291608 -1.68842147
  11.45109604 28.24187672  1.68641288
   5.49313400 12.03915372  2.72960506
   6.42450610 12.23646074 -0.64598932
   5.14220995  4.40643831  2.13244461
  10.50933628 18.15828041  1.27091905
  10.49430608  5.91636491  4.20541447
   7.36499203  1.75362132  5.69569489
   7.37858427 22.31767806 -0.21603837
   6.79008283 19.86360087 -0.02848361
   0.81836510 20.41170296  4.46044234
   0.82379283  3.66440300  1.01487487
  11.10016121 20.61197928  1.08366188
   1.41235990  6.11804210  0.82490692
   1.41193967 17.95888827  4.64669447
   4.54639070 22.12138759  3.15268797
   5.13662677 19.66818120  3.34006404
   6.77559530  4.20724909  5.50566419
  11.08024234  3.46189324  4.39580227
   4.55066365  1.95298539  2.32075022
   8.52652224 14.75256719 -0.59014020
   3.39186438  9.51973138  2.67352456
   5.40997471 14.80639492  5.74876551
   0.55832444 25.27742443  2.04316809
   2.56948674 30.95841196 -1.63537323
   5.40140226  9.27191642 -0.28785519
  11.36367562 31.01084390  4.70677560
   9.35021788 25.72235306  1.63318856
   0.55316920 31.20927192  1.32997319
   6.51103627 15.00688410  2.37581625
   8.52788723  9.31779089  6.04929348
   9.34768426 30.75618007  1.74255710
   6.51474061  9.07491825  3.08881004
   3.39297740 14.55653446  2.78486745
   2.56908789 25.52494278  5.00330275
  11.36140260 25.47598466 -1.32909555
  11.20452232 29.75336238 -0.71178730
  10.55379612 29.54116808  0.47635733
  11.20443559 26.73230790  4.08720806
   6.67116174 13.35058972  3.70538706
   7.32265224 10.93614489  0.56454902
   1.36466884 27.14125152 -0.47928169
   7.32301992 13.13851819  4.89301877
   6.67293895 10.72778686  1.75422670
   4.59585235 13.33829646  1.51842296
   0.71546831 26.93136441  0.71037207
   1.36510455 29.34333439  3.84883751
   4.59559981 10.73811965  3.93922788
  10.55434431 26.94174628  2.89790008
   0.71354917 29.55435115  2.66083126
   5.24543941 10.52822550  5.12852023
   5.24697112 13.54885403  0.33003649
   9.71867367  0.58815429  1.86576881
   9.72918045 23.48685213  3.60903281
   8.15175988 16.59343487  4.18762526
   8.14683056  7.48167227  1.27918210
   2.19194356 23.68646021  0.23177782
   3.77039218 16.79360313  0.81182921
   2.19113415  0.39101353  5.23688089
   3.76755467  7.28397081  4.65117402
   8.51513105 -0.23175541  6.69663985
  11.07557449  1.06815648  3.66775944
  11.09430071 23.00604760  1.81288600
   6.79373465 17.47029515 -0.75875239
   6.78336999  6.60243072  6.23281490
   3.39235799 24.10835320  2.15272550
   9.35889794 16.17245478  2.27025708
   9.34774597  7.90452748  3.19988997
   2.57091128 15.97558447  5.63972966
   0.82783828 22.80696641  5.18623759
   0.83024659  1.26903817  0.28786428
   5.13178356  6.80109550  2.85531845
   8.52594816 24.30599474 -1.21936590
   3.39224121 -0.03037781  3.31601031
   2.56230329  8.10543975 -0.17919825
   5.13059369 17.27323819  2.61141877
 


--------------------------------------------------------------------------------------------------------


 k-point  1 :   0.0000 0.0000 0.0000  plane waves:   86681
 k-point  2 :   0.5000-0.0000-0.0000  plane waves:   86750
 k-point  3 :  -0.0000 0.0000 0.2500  plane waves:   86702
 k-point  4 :   0.5000 0.0000 0.2500  plane waves:   86625
 k-point  5 :  -0.0000 0.0000 0.5000  plane waves:   86442
 k-point  6 :   0.5000 0.0000 0.5000  plane waves:   86522

 maximum and minimum number of plane-waves per node :     21704    21585

 maximum number of plane-waves:     86750
 maximum index in each direction: 
   IXMAX=   23   IYMAX=   64   IZMAX=   13
   IXMIN=  -24   IYMIN=  -64   IZMIN=  -14


 real space projection operators:
  total allocation   :      11608.24 KBytes
  max/ min on nodes  :       2906.36       2898.37


 parallel 3D FFT for wavefunctions:
    minimum data exchange during FFTs selected (reduces bandwidth)
 parallel 3D FFT for charge:
    minimum data exchange during FFTs selected (reduces bandwidth)


 total amount of memory used by VASP MPI-rank0   111163. kBytes
=======================================================================

   base      :      30000. kBytes
   nonlr-proj:       5878. kBytes
   fftplans  :       7805. kBytes
   grid      :      14036. kBytes
   one-center:        606. kBytes
   wavefun   :      52838. kBytes
 
     INWAV:  cpu time    0.0003: real time    0.0002
 Broyden mixing: mesh for mixing (old mesh)
   NGX = 47   NGY =129   NGZ = 27
  (NGX  =144   NGY  =392   NGZ  = 84)
  gives a total of 163701 points

 initial charge density was supplied:
 charge density of overlapping atoms calculated
 number of electron     616.0000000 magnetization 
 keeping initial charge density in first step


--------------------------------------------------------------------------------------------------------


 Maximum index for non-local projection operator          521
 Maximum index for augmentation-charges          414 (set IRDMAX)


--------------------------------------------------------------------------------------------------------


 First call to EWALD:  gamma=   0.129
 Maximum number of real-space cells 3x 1x 5
 Maximum number of reciprocal cells 2x 6x 2

    FEWALD:  cpu time    0.0139: real time    0.0140


--------------------------------------- Iteration      1(   1)  ---------------------------------------


    POTLOK:  cpu time    0.1453: real time    0.1796
    SETDIJ:  cpu time    0.0294: real time    0.0295
    EDDIAG:  cpu time    3.8702: real time    3.9614
  RMM-DIIS:  cpu time    4.9451: real time    4.9503
    ORTHCH:  cpu time    0.8974: real time    0.8985
       DOS:  cpu time    0.0042: real time    0.0049
    --------------------------------------------
      LOOP:  cpu time    9.8917: real time   10.0243

 eigenvalue-minimisations  :  2400
 total energy-change (2. order) : 0.7089089E+04  (-0.2478149E+05)
 number of electron     616.0000000 magnetization 
 augmentation part      616.0000000 magnetization 

 Free energy of the ion-electron system (eV)
  ---------------------------------------------------
  alpha Z        PSCENC =       744.10026804
  Ewald energy   TEWEN  =      7097.47270383
  -Hartree energ DENC   =    -35349.45795199
  -exchange      EXHF   =         0.00000000
  -V(xc)+E(xc)   XCENC  =      2272.15195780
  PAW double counting   =     25034.14638475   -25847.60581054
  entropy T*S    EENTRO =        -0.06197624
  eigenvalues    EBANDS =       704.66374558
  atomic energy  EATOM  =     32433.67991533
  Solvation  Ediel_sol  =         0.00000000
  ---------------------------------------------------
  free energy    TOTEN  =      7089.08923656 eV

  energy without entropy =     7089.15121280  energy(sigma->0) =     7089.12022468


--------------------------------------------------------------------------------------------------------




--------------------------------------- Iteration      1(   2)  ---------------------------------------


    EDDIAG:  cpu time    3.7332: real time    3.7374
  RMM-DIIS:  cpu time    4.8787: real time    4.8981
    ORTHCH:  cpu time    0.9027: real time    0.9037
       DOS:  cpu time    0.0030: real time    0.0030
    --------------------------------------------
      LOOP:  cpu time    9.5177: real time    9.5422

 eigenvalue-minimisations  :  2400
 total energy-change (2. order) :-0.4521919E+04  (-0.6730673E+04)
 number of electron     616.0000000 magnetization 
 augmentation part      616.0000000 magnetization 

 Free energy of the ion-electron system (eV)
  ---------------------------------------------------
  alpha Z        PSCENC =       744.10026804
  Ewald energy   TEWEN  =      7097.47270383
  -Hartree energ DENC   =    -35349.45795199
  -exchange      EXHF   =         0.00000000
  -V(xc)+E(xc)   XCENC  =      2272.15195780
  PAW double counting   =     25034.14638475   -25847.60581054
  entropy T*S    EENTRO =        -0.05399409
  eigenvalues    EBANDS =     -3817.26367131
  atomic energy  EATOM  =     32433.67991533
  Solvation  Ediel_sol  =         0.00000000
  ---------------------------------------------------
  free energy    TOTEN  =      2567.16980182 eV

  energy without entropy =     2567.22379591  energy(sigma->0) =     2567.19679887


--------------------------------------------------------------------------------------------------------




--------------------------------------- Iteration      1(   3)  ---------------------------------------


    EDDIAG:  cpu time    3.7365: real time    3.7408
  RMM-DIIS:  cpu time    4.8456: real time    4.8502
    ORTHCH:  cpu time    0.9046: real time    0.9056
       DOS:  cpu time    0.0029: real time    0.0029
    --------------------------------------------
      LOOP:  cpu time    9.4895: real time    9.4995

 eigenvalue-minimisations  :  2400
 total energy-change (2. order) :-0.2124973E+04  (-0.2659982E+04)
 number of electron     616.0000000 magnetization 
 augmentation part      616.0000000 magnetization 

 Free energy of the ion-electron system (eV)
  ---------------------------------------------------
  alpha Z        PSCENC =       744.10026804
  Ewald energy   TEWEN  =      7097.47270383
  -Hartree energ DENC   =    -35349.45795199
  -exchange      EXHF   =         0.00000000
  -V(xc)+E(xc)   XCENC  =      2272.15195780
  PAW double counting   =     25034.14638475   -25847.60581054
  entropy T*S    EENTRO =        -0.03398189
  eigenvalues    EBANDS =     -5942.25662498
  atomic energy  EATOM  =     32433.67991533
  Solvation  Ediel_sol  =         0.00000000
  ---------------------------------------------------
  free energy    TOTEN  =       442.19686036 eV

  energy without entropy =      442.23084224  energy(sigma->0) =      442.21385130


--------------------------------------------------------------------------------------------------------




--------------------------------------- Iteration      1(   4)  ---------------------------------------


    EDDIAG:  cpu time    3.7295: real time    3.7336
  RMM-DIIS:  cpu time    4.8438: real time    4.8501
    ORTHCH:  cpu time    0.9020: real time    0.9030
       DOS:  cpu time    0.0029: real time    0.0029
    --------------------------------------------
      LOOP:  cpu time    9.4782: real time    9.4897

 eigenvalue-minimisations  :  2400
 total energy-change (2. order) :-0.1092454E+04  (-0.1064293E+04)
 number of electron     616.0000000 magnetization 
 augmentation part      616.0000000 magnetization 

 Free energy of the ion-electron system (eV)
  ---------------------------------------------------
  alpha Z        PSCENC =       744.10026804
  Ewald energy   TEWEN  =      7097.47270383
  -Hartree energ DENC   =    -35349.45795199
  -exchange      EXHF   =         0.00000000
  -V(xc)+E(xc)   XCENC  =      2272.15195780
  PAW double counting   =     25034.14638475   -25847.60581054
  entropy T*S    EENTRO =        -0.01690270
  eigenvalues    EBANDS =     -7034.72748270
  atomic energy  EATOM  =     32433.67991533
  Solvation  Ediel_sol  =         0.00000000
  ---------------------------------------------------
  free energy    TOTEN  =      -650.25691818 eV

  energy without entropy =     -650.24001548  energy(sigma->0) =     -650.24846683


--------------------------------------------------------------------------------------------------------




--------------------------------------- Iteration      1(   5)  ---------------------------------------


    EDDIAG:  cpu time    3.7319: real time    3.7357
  RMM-DIIS:  cpu time    4.8452: real time    4.8505
    ORTHCH:  cpu time    0.9029: real time    0.9039
       DOS:  cpu time    0.0029: real time    0.0029
    --------------------------------------------
      LOOP:  cpu time    9.4829: real time    9.4930

 eigenvalue-minimisations  :  2400
 total energy-change (2. order) :-0.3885657E+03  (-0.3490000E+03)
 number of electron     616.0000000 magnetization 
 augmentation part      616.0000000 magnetization 

 Free energy of the ion-electron system (eV)
  ---------------------------------------------------
  alpha Z        PSCENC =       744.10026804
  Ewald energy   TEWEN  =      7097.47270383
  -Hartree energ DENC   =    -35349.45795199
  -exchange      EXHF   =         0.00000000
  -V(xc)+E(xc)   XCENC  =      2272.15195780
  PAW double counting   =     25034.14638475   -25847.60581054
  entropy T*S    EENTRO =        -0.00899472
  eigenvalues    EBANDS =     -7423.30104808
  atomic energy  EATOM  =     32433.67991533
  Solvation  Ediel_sol  =         0.00000000
  ---------------------------------------------------
  free energy    TOTEN  =     -1038.82257558 eV

  energy without entropy =    -1038.81358086  energy(sigma->0) =    -1038.81807822


--------------------------------------------------------------------------------------------------------




--------------------------------------- Iteration      1(   6)  ---------------------------------------


    EDDIAG:  cpu time    3.7248: real time    3.7288
  RMM-DIIS:  cpu time    4.8446: real time    4.8508
    ORTHCH:  cpu time    0.9000: real time    0.9011
       DOS:  cpu time    0.0013: real time    0.0013
    --------------------------------------------
      LOOP:  cpu time    9.4707: real time    9.4821

 eigenvalue-minimisations  :  2400
 total energy-change (2. order) :-0.1300655E+03  (-0.1141398E+03)
 number of electron     616.0000000 magnetization 
 augmentation part      616.0000000 magnetization 

 Free energy of the ion-electron system (eV)
  ---------------------------------------------------
  alpha Z        PSCENC =       744.10026804
  Ewald energy   TEWEN  =      7097.47270383
  -Hartree energ DENC   =    -35349.45795199
  -exchange      EXHF   =         0.00000000
  -V(xc)+E(xc)   XCENC  =      2272.15195780
  PAW double counting   =     25034.14638475   -25847.60581054
  entropy T*S    EENTRO =        -0.00000000
  eigenvalues    EBANDS =     -7553.37559117
  atomic energy  EATOM  =     32433.67991533
  Solvation  Ediel_sol  =         0.00000000
  ---------------------------------------------------
  free energy    TOTEN  =     -1168.88812395 eV

  energy without entropy =    -1168.88812395  energy(sigma->0) =    -1168.88812395


--------------------------------------------------------------------------------------------------------




--------------------------------------- Iteration      1(   7)  ---------------------------------------


    EDDIAG:  cpu time    3.7263: real time    3.7302
  RMM-DIIS:  cpu time    4.8427: real time    4.8476
    ORTHCH:  cpu time    0.8996: real time    0.9006
       DOS:  cpu time    0.0014: real time    0.0013
    --------------------------------------------
      LOOP:  cpu time    9.4700: real time    9.4798

 eigenvalue-minimisations  :  2400
 total energy-change (2. order) :-0.4370502E+02  (-0.3998761E+02)
 number of electron     616.0000000 magnetization 
 augmentation part      616.0000000 magnetization 

 Free energy of the ion-electron system (eV)
  ---------------------------------------------------
  alpha Z        PSCENC =       744.10026804
  Ewald energy   TEWEN  =      7097.47270383
  -Hartree energ DENC   =    -35349.45795199
  -exchange      EXHF   =         0.00000000
  -V(xc)+E(xc)   XCENC  =      2272.15195780
  PAW double counting   =     25034.14638475   -25847.60581054
  entropy T*S    EENTRO =        -0.00000000
  eigenvalues    EBANDS =     -7597.08060667
  atomic energy  EATOM  =     32433.67991533
  Solvation  Ediel_sol  =         0.00000000
  ---------------------------------------------------
  free energy    TOTEN  =     -1212.59313945 eV

  energy without entropy =    -1212.59313945  energy(sigma->0) =    -1212.59313945


--------------------------------------------------------------------------------------------------------




--------------------------------------- Iteration      1(   8)  ---------------------------------------


    EDDIAG:  cpu time    3.7213: real time    3.7257
  RMM-DIIS:  cpu time    4.8410: real time    4.8469
    ORTHCH:  cpu time    0.9121: real time    0.9248
       DOS:  cpu time    0.0018: real time    0.0018
    --------------------------------------------
      LOOP:  cpu time    9.4761: real time    9.4991

 eigenvalue-minimisations  :  2400
 total energy-change (2. order) :-0.1605919E+02  (-0.1437123E+02)
 number of electron     616.0000000 magnetization 
 augmentation part      616.0000000 magnetization 

 Free energy of the ion-electron system (eV)
  ---------------------------------------------------
  alpha Z        PSCENC =       744.10026804
  Ewald energy   TEWEN  =      7097.47270383
  -Hartree energ DENC   =    -35349.45795199
  -exchange      EXHF   =         0.00000000
  -V(xc)+E(xc)   XCENC  =      2272.15195780
  PAW double counting   =     25034.14638475   -25847.60581054
  entropy T*S    EENTRO =        -0.00000000
  eigenvalues    EBANDS =     -7613.13979261
  atomic energy  EATOM  =     32433.67991533
  Solvation  Ediel_sol  =         0.00000000
  ---------------------------------------------------
  free energy    TOTEN  =     -1228.65232539 eV

  energy without entropy =    -1228.65232539  energy(sigma->0) =    -1228.65232539


--------------------------------------------------------------------------------------------------------




--------------------------------------- Iteration      1(   9)  ---------------------------------------


[...]
   -.985E+02 -.859E+01 -.769E+02   0.848E+02 0.237E+02 0.894E+02   0.138E+02 -.152E+02 -.125E+02   0.784E-04 -.655E-06 -.353E-04
   0.337E+03 0.806E+02 -.486E+02   -.340E+03 -.101E+03 0.610E+02   0.367E+01 0.207E+02 -.125E+02   -.464E-04 -.777E-05 -.799E-04
   -.985E+02 -.824E+01 -.772E+02   0.848E+02 0.233E+02 0.897E+02   0.138E+02 -.151E+02 -.125E+02   0.755E-04 0.933E-06 -.330E-04
   -.336E+03 0.806E+02 -.485E+02   0.340E+03 -.101E+03 0.609E+02   -.365E+01 0.207E+02 -.125E+02   0.486E-04 -.990E-05 -.794E-04
   0.337E+03 -.805E+02 0.489E+02   -.340E+03 0.101E+03 -.614E+02   0.362E+01 -.206E+02 0.125E+02   -.468E-04 0.101E-04 0.788E-04
   0.336E+03 -.803E+02 0.488E+02   -.340E+03 0.101E+03 -.613E+02   0.364E+01 -.207E+02 0.125E+02   -.447E-04 0.113E-04 0.738E-04
   -.977E+02 0.778E+01 0.771E+02   0.839E+02 -.229E+02 -.896E+02   0.138E+02 0.151E+02 0.125E+02   0.743E-04 -.309E-05 0.313E-04
   0.985E+02 -.832E+01 -.773E+02   -.848E+02 0.234E+02 0.898E+02   -.138E+02 -.151E+02 -.125E+02   -.739E-04 0.579E-06 -.333E-04
   0.979E+02 0.795E+01 0.771E+02   -.842E+02 -.230E+02 -.895E+02   -.138E+02 0.151E+02 0.125E+02   -.751E-04 -.235E-06 0.349E-04
   0.169E+03 0.506E+02 -.251E+02   -.172E+03 -.506E+02 0.265E+02   0.231E+01 -.879E-03 -.137E+01   0.279E-04 0.123E-03 -.820E-05
   0.171E+03 -.507E+02 0.259E+02   -.174E+03 0.507E+02 -.274E+02   0.239E+01 -.360E-02 0.143E+01   0.310E-04 -.122E-03 0.943E-05
   -.170E+03 0.506E+02 -.250E+02   0.172E+03 -.506E+02 0.263E+02   -.229E+01 -.138E-02 -.135E+01   -.303E-04 0.125E-03 -.890E-05
   -.172E+03 -.508E+02 0.262E+02   0.174E+03 0.508E+02 -.277E+02   -.242E+01 -.285E-02 0.145E+01   -.296E-04 -.122E-03 0.100E-04
   -.171E+03 -.508E+02 0.262E+02   0.174E+03 0.509E+02 -.276E+02   -.242E+01 -.174E-01 0.145E+01   -.312E-04 -.121E-03 0.955E-05
   0.170E+03 0.505E+02 -.254E+02   -.172E+03 -.505E+02 0.268E+02   0.233E+01 0.116E-02 -.139E+01   0.312E-04 0.126E-03 -.750E-05
   -.169E+03 0.504E+02 -.252E+02   0.172E+03 -.504E+02 0.266E+02   -.233E+01 0.205E-02 -.139E+01   -.281E-04 0.120E-03 -.118E-04
   0.171E+03 -.510E+02 0.260E+02   -.174E+03 0.510E+02 -.274E+02   0.240E+01 -.161E-01 0.144E+01   0.318E-04 -.123E-03 0.843E-05
   0.343E+03 0.288E+03 0.231E+03   -.361E+03 -.325E+03 -.268E+03   0.175E+02 0.367E+02 0.369E+02   0.106E-03 0.102E-03 0.486E-04
   -.801E+02 0.217E+02 -.202E+03   0.114E+03 -.397E+02 0.240E+03   -.340E+02 0.180E+02 -.382E+02   -.538E-05 0.162E-03 -.181E-04
   -.802E+02 -.220E+02 0.201E+03   0.114E+03 0.400E+02 -.239E+03   -.341E+02 -.180E+02 0.380E+02   -.417E-05 -.162E-03 0.179E-04
   0.793E+02 0.220E+02 -.202E+03   -.113E+03 -.400E+02 0.240E+03   0.339E+02 0.180E+02 -.382E+02   0.575E-05 0.165E-03 -.212E-04
   0.802E+02 -.224E+02 0.201E+03   -.114E+03 0.404E+02 -.239E+03   0.340E+02 -.180E+02 0.381E+02   0.659E-05 -.164E-03 0.196E-04
   -.344E+03 -.288E+03 -.231E+03   0.362E+03 0.324E+03 0.268E+03   -.175E+02 -.367E+02 -.369E+02   -.109E-03 -.100E-03 -.491E-04
   -.344E+03 0.288E+03 0.231E+03   0.361E+03 -.325E+03 -.268E+03   -.176E+02 0.367E+02 0.369E+02   -.115E-03 0.113E-03 0.602E-04
   -.345E+03 -.288E+03 -.230E+03   0.363E+03 0.325E+03 0.267E+03   -.175E+02 -.368E+02 -.369E+02   -.111E-03 -.103E-03 -.503E-04
   0.343E+03 0.287E+03 0.231E+03   -.360E+03 -.324E+03 -.268E+03   0.174E+02 0.367E+02 0.370E+02   0.114E-03 0.114E-03 0.610E-04
   0.800E+02 -.219E+02 0.201E+03   -.114E+03 0.399E+02 -.239E+03   0.341E+02 -.180E+02 0.381E+02   0.216E-05 -.162E-03 0.173E-04
   0.805E+02 0.214E+02 -.202E+03   -.114E+03 -.394E+02 0.240E+03   0.340E+02 0.180E+02 -.381E+02   0.449E-05 0.163E-03 -.203E-04
   -.793E+02 -.223E+02 0.201E+03   0.113E+03 0.403E+02 -.239E+03   -.340E+02 -.179E+02 0.381E+02   -.368E-05 -.163E-03 0.217E-04
   0.344E+03 -.288E+03 -.231E+03   -.362E+03 0.324E+03 0.268E+03   0.175E+02 -.367E+02 -.369E+02   0.109E-03 -.102E-03 -.489E-04
   -.342E+03 0.288E+03 0.231E+03   0.360E+03 -.324E+03 -.268E+03   -.174E+02 0.367E+02 0.370E+02   -.103E-03 0.956E-04 0.445E-04
   0.345E+03 -.288E+03 -.231E+03   -.362E+03 0.325E+03 0.268E+03   0.176E+02 -.368E+02 -.369E+02   0.113E-03 -.107E-03 -.557E-04
   -.803E+02 0.216E+02 -.202E+03   0.114E+03 -.396E+02 0.240E+03   -.340E+02 0.180E+02 -.381E+02   -.496E-05 0.165E-03 -.221E-04
 -----------------------------------------------------------------------------------------------
   0.946E-01 0.180E+00 -.480E+00   0.639E-12 -.128E-12 -.313E-12   -.667E-01 -.154E+00 0.480E+00   0.505E-04 0.135E-04 0.118E-04
 
 
 POSITION                                       TOTAL-FORCE (eV/Angst)
 -----------------------------------------------------------------------------------
     10.94963     31.00513     -1.12518         0.001077     -0.000523      0.001942
      9.90162     30.67673      0.81168        -0.006604     -0.004108     -0.001612
     10.95188     25.48051      4.50178        -0.002881      0.000929     -0.000741
      6.92433     14.60286      3.29250         0.003560      0.001456      0.001505
      7.97301      9.79852      0.23137        -0.002117      0.000753      0.003064
      2.01516     26.00427     -0.81409         0.002626      0.000313      0.004326
      7.97437     14.27462      5.22826         0.003265     -0.001784     -0.003146
      6.92588      9.47648      2.16997        -0.000503      0.002369     -0.002423
      3.94610     14.47542      1.85359        -0.001816     -0.003858     -0.001701
      0.96917     25.67975      1.12456        -0.000257      0.000327      0.002209
      2.01661     30.47969      4.18336         0.000193     -0.004031     -0.002934
      3.94475      9.60123      3.60493        -0.002475      0.001024      0.006085
      9.90424     25.80435      2.56389        -0.003464      0.001295      0.004364
      0.96652     30.80645      2.24721         0.001140     -0.002920      0.001340
      4.99165      9.27677      5.54318        -0.000383     -0.001518      0.000155
      4.99514     14.80130     -0.08318        -0.002271      0.000587     -0.000302
      8.90788      0.98349      0.77351        -0.000784      0.002087     -0.006494
     10.30253      1.47259      2.80176        -0.004349      0.004331      0.000465
     10.31876     22.60192      2.67692         0.000765     -0.002075     -0.003184
      7.56782     17.47732      5.12399         0.000233      0.001997      0.001410
      7.55597      6.59619      0.34856        -0.000741      0.000110     -0.003275
      2.99910     23.29064      1.32669         0.000209     -0.000231      0.003381
      8.96295     16.98952      3.09580        -0.001410      0.000760     -0.005929
      8.95259      7.08619      2.37527        -0.002851     -0.003023      0.003841
      2.96076     17.18975     -0.28101         0.001204      0.003533     -0.003587
      1.60145     22.80094     -0.69880        -0.001804     -0.002455     -0.004988
      1.60605      1.27553      6.17200         0.002069      0.002076      0.001460
      4.35748      6.39783      3.72085         0.002604     -0.002966     -0.007010
      8.92174     23.09071      4.70374         0.003386     -0.005163      0.002299
      3.00095      0.78649      4.14394        -0.001494     -0.001152     -0.004766
      2.95931      6.88902      5.74567        -0.001059     -0.005492      0.005334
      4.35620     17.67791      1.74673        -0.001493      0.001358      0.001762
      8.56991      2.42658      0.68618         0.000664      0.000613     -0.001207
      9.93344      2.90529      2.68150        -0.001085      0.001258     -0.001171
      9.95153     21.16886      2.79755        -0.002649     -0.002392     -0.000369
      7.93606     18.91030      5.00399         0.004954      0.001328      0.000707
      7.92052      5.16282      0.47157         0.005029     -0.003339      0.004951
      3.33564     21.84714      1.41545        -0.003300      0.001149     -0.001237
      9.30011     18.43290      3.00885        -0.001350     -0.003070     -0.001677
      9.28493      5.64193      2.46691        -0.001009      0.000911     -0.000150
      2.62018     18.63223     -0.36551         0.005219     -0.001704     -0.001505
      1.96754     21.36772     -0.57673         0.002073     -0.001301     -0.002183
      1.97510      2.70832      6.05181         0.002563      0.000287     -0.002996
      3.99237      4.96466      3.84480        -0.004132     -0.004475     -0.003421
      8.58653     21.64693      4.79241         0.002162      0.000194      0.003003
      3.34160      2.22890      4.05854        -0.005949      0.001790     -0.002622
      2.62457      5.44510      5.83669         0.004809      0.000094      0.000618
      3.98728     19.11072      1.62727        -0.001980      0.002599     -0.001979
      7.74744      2.48171      6.41142         0.001637     -0.003819     -0.000776
     10.43359      3.82503      3.59667        -0.000192      0.000670     -0.002839
     10.45228     20.24934      1.88215        -0.002956     -0.000757      0.002756
      7.43572     20.22724     -0.82839         0.000444      0.002029      0.001433
      7.42180      3.84486      6.30563         0.004867      0.000300      0.006157
      4.16186     21.39373      2.43756        -0.001862      0.000873      0.005072
     10.12556     18.88629      1.98603        -0.000789      0.000083      0.000567
     10.10900      5.18849      3.49087        -0.001300     -0.000647      0.001162
      1.79469     18.68695      5.36220         0.002326     -0.000579     -0.003404
      1.46705     20.04968      5.25847         0.006296      0.000985      0.001998
      1.47221      4.02669      0.21660        -0.000162     -0.000958     -0.000388
      4.49433      4.04430      2.93109        -0.002020     -0.002283      0.000129
      7.76145     21.59058     -0.93268         0.000013      0.001122      0.001329
      4.16781      2.68134      3.03597        -0.003434     -0.000924      0.000135
      1.79781      5.38991      0.11075        -0.003052      0.004733      0.002103
      4.48828     20.03060      2.54186         0.000276     -0.000583      0.001342
     10.13263     31.63170     -0.18234        -0.000542      0.003527      0.001655
     10.13649     24.85116      3.55950         0.001412      0.001247     -0.005232
      7.74158     15.22993      4.23490        -0.000290     -0.000327      0.002674
      7.74062      8.84616      1.22784        -0.001413      0.004048     -0.003008
      1.78429     25.05080      0.18168        -0.005358      0.001317      0.000373
      4.17947     15.42985      0.85958         0.001396      0.000333      0.001950
      1.78353     31.43418      3.18935        -0.001114      0.002478     -0.000556
      4.17594      8.64797      4.60076         0.000834      0.000712     -0.001803
      9.08904      3.34234      1.63225         0.002522      0.000045      0.002119
      9.10665     20.73172      3.84627        -0.001224     -0.003072     -0.003987
      8.78025     19.34810      3.95496        -0.001936      0.001289      0.002640
      8.76352      4.72600      1.52203         0.001416     -0.004027     -0.004243
      2.81398     20.93119      0.47092        -0.000734     -0.001738     -0.001801
      3.14082     19.54773      0.57988        -0.001922      0.002844     -0.000259
      2.82122      3.14477      5.00378        -0.002820      0.004259     -0.000576
      3.14690      4.52839      4.89328        -0.000010     -0.000141     -0.000274
      0.46632     28.44292     -1.68842         0.006393     -0.005003     -0.001929
     11.45110     28.24188      1.68641         0.006733     -0.003811      0.006189
      5.49313     12.03915      2.72961         0.005158     -0.005849     -0.004645
      6.42451     12.23646     -0.64599         0.004193      0.000430      0.004276
      5.14221      4.40644      2.13244         0.000357      0.001695     -0.006284
     10.50934     18.15828      1.27092         0.000501      0.001915     -0.005583
     10.49431      5.91636      4.20541        -0.001747      0.000006      0.002372
      7.36499      1.75362      5.69569        -0.002426      0.000455     -0.004294
      7.37858     22.31768     -0.21604        -0.000771     -0.000458      0.001609
      6.79008     19.86360     -0.02848        -0.001007      0.001605      0.003345
      0.81837     20.41170      4.46044        -0.001083      0.003258     -0.005782
      0.82379      3.66440      1.01487         0.000500      0.001090      0.005033
     11.10016     20.61198      1.08366        -0.000970      0.001271     -0.004659
      1.41236      6.11804      0.82491         0.000614     -0.000053      0.002739
      1.41194     17.95889      4.64669        -0.004556     -0.000004     -0.005115
      4.54639     22.12139      3.15269         0.000495     -0.000441      0.002377
      5.13663     19.66818      3.34006         0.000800     -0.000977      0.004732
      6.77560      4.20725      5.50566         0.000891      0.001182     -0.004446
     11.08024      3.46189      4.39580         0.002752      0.000490      0.007437
      4.55066      1.95299      2.32075         0.002637      0.001169     -0.004458
      8.52652     14.75257     -0.59014         0.001720      0.002703      0.002169
      3.39186      9.51973      2.67352         0.001311     -0.002688     -0.000169
      5.40997     14.80639      5.74877        -0.000701     -0.000471      0.002803
      0.55832     25.27742      2.04317        -0.002197     -0.000531     -0.002201
      2.56949     30.95841     -1.63537        -0.002898      0.001501     -0.000390
      5.40140      9.27192     -0.28786         0.001668      0.002449     -0.002270
     11.36368     31.01084      4.70678         0.002204      0.002461     -0.000239
      9.35022     25.72235      1.63319         0.003813     -0.001544     -0.001543
      0.55317     31.20927      1.32997         0.000011      0.002701      0.002198
      6.51104     15.00688      2.37582        -0.001950      0.000846      0.000196
      8.52789      9.31779      6.04929        -0.005040     -0.002521      0.002506
      9.34768     30.75618      1.74256         0.000130      0.003459      0.001656
      6.51474      9.07492      3.08881        -0.002654      0.001889     -0.002618
      3.39298     14.55653      2.78487        -0.000104      0.002756     -0.000434
      2.56909     25.52494      5.00330        -0.000680     -0.003203     -0.000811
     11.36140     25.47598     -1.32910         0.003449      0.002441     -0.002020
     11.20452     29.75336     -0.71179        -0.002350      0.001156     -0.003277
     10.55380     29.54117      0.47636        -0.001958     -0.000672     -0.002479
     11.20444     26.73231      4.08721         0.003876      0.001772     -0.000016
      6.67116     13.35059      3.70539         0.000483      0.001273     -0.003284
      7.32265     10.93614      0.56455        -0.000182      0.000344      0.004255
      1.36467     27.14125     -0.47928        -0.001482      0.002729      0.001018
      7.32302     13.13852      4.89302         0.000630     -0.000407     -0.003106
      6.67294     10.72779      1.75423        -0.002646      0.001525      0.002418
      4.59585     13.33830      1.51842         0.000504     -0.001648     -0.001608
      0.71547     26.93136      0.71037        -0.002203      0.001589     -0.000297
      1.36510     29.34333      3.84884         0.003747     -0.002253     -0.000542
      4.59560     10.73812      3.93923         0.001692      0.000055      0.003745
     10.55434     26.94175      2.89790        -0.000092     -0.001375      0.003493
      0.71355     29.55435      2.66083        -0.000183      0.003145      0.001419
      5.24544     10.52823      5.12852         0.001767      0.000481      0.001483
      5.24697     13.54885      0.33004         0.000657      0.002162     -0.000514
      9.71867      0.58815      1.86577        -0.000474      0.002063     -0.000845
      9.72918     23.48685      3.60903         0.000938     -0.002056      0.000034
      8.15176     16.59343      4.18763         0.001867      0.001818     -0.001456
      8.14683      7.48167      1.27918        -0.001223     -0.001949      0.001647
      2.19194     23.68646      0.23178        -0.001550      0.000538      0.000903
      3.77039     16.79360      0.81183        -0.002344     -0.000025     -0.002116
      2.19113      0.39101      5.23688         0.001607     -0.000120     -0.001053
      3.76755      7.28397      4.65117         0.001189     -0.003627      0.001986
      8.51513     -0.23176      6.69664         0.002456     -0.001042     -0.000579
     11.07557      1.06816      3.66776         0.002158     -0.002072      0.005366
     11.09430     23.00605      1.81289        -0.006081     -0.001714      0.001986
      6.79373     17.47030     -0.75875         0.001280     -0.000745     -0.000436
      6.78337      6.60243      6.23281         0.001271     -0.001876     -0.003814
      3.39236     24.10835      2.15273         0.004934      0.001765      0.006148
      9.35890     16.17245      2.27026        -0.003353      0.001599     -0.000595
      9.34775      7.90453      3.19989         0.001690     -0.001359      0.002622
      2.57091     15.97558      5.63973        -0.000662     -0.001780     -0.003243
      0.82784     22.80697      5.18624         0.000027     -0.004214     -0.003544
      0.83025      1.26904      0.28786         0.000632     -0.000073      0.004981
      5.13178      6.80110      2.85532        -0.000996     -0.000924     -0.001516
      8.52595     24.30599     -1.21937        -0.001996      0.002237      0.004875
      3.39224     -0.03038      3.31601         0.001129     -0.000329     -0.004401
      2.56230      8.10544     -0.17920        -0.001365      0.003277      0.007548
      5.13059     17.27324      2.61142        -0.000837     -0.000481      0.002986
 -----------------------------------------------------------------------------------
    total drift:                                0.027892      0.025778     -0.000247


--------------------------------------------------------------------------------------------------------



  FREE ENERGIE OF THE ION-ELECTRON SYSTEM (eV)
  ---------------------------------------------------
  free  energy   TOTEN  =     -1162.26070367 eV

  energy  without entropy=    -1162.26070367  energy(sigma->0) =    -1162.26070367
 


--------------------------------------------------------------------------------------------------------


    POTLOK:  cpu time    0.1452: real time    0.1460


--------------------------------------------------------------------------------------------------------




--------------------------------------------------------------------------------------------------------


  
 reached required accuracy - stopping structural energy minimisation
 writing wavefunctions
     LOOP+:  cpu time  474.9099: real time  481.9201
    4ORBIT:  cpu time    0.0000: real time    0.0000

 total amount of memory used by VASP MPI-rank0   111163. kBytes
=======================================================================

   base      :      30000. kBytes
   nonlr-proj:       5878. kBytes
   fftplans  :       7805. kBytes
   grid      :      14036. kBytes
   one-center:        606. kBytes
   wavefun   :      52838. kBytes
 
  
  
 General timing and accounting informations for this job:
 ========================================================
  
                  Total CPU time used (sec):      551.207
                            User time (sec):      503.721
                          System time (sec):       47.486
                         Elapsed time (sec):      559.760
  
                   Maximum memory used (kb):     1006040.
                   Average memory used (kb):           0.
  
                          Minor page faults:       387097
                          Major page faults:            9
                 Voluntary context switches:        12474
