       N       E                     dE             d eps       ncg     rms          rms(c)
DAV:   1     0.454171896755E+04    0.45417E+04   -0.31693E+05 10752   0.161E+03
DAV:   2    -0.770590591176E+03   -0.53123E+04   -0.51354E+04 13376   0.354E+02
DAV:   3    -0.127736721158E+04   -0.50678E+03   -0.50107E+03 13184   0.119E+02
DAV:   4    -0.129175810153E+04   -0.14391E+02   -0.14265E+02 13376   0.229E+01
DAV:   5    -0.129231859760E+04   -0.56050E+00   -0.56015E+00 14400   0.419E+00    0.907E+01
DAV:   6    -0.158528210308E+04   -0.29296E+03   -0.35626E+03 18176   0.104E+02    0.246E+02
DAV:   7    -0.146685121831E+04    0.11843E+03   -0.27622E+02 13312   0.294E+01    0.162E+02
DAV:   8    -0.118800165251E+04    0.27885E+03   -0.24586E+02 15616   0.704E+01    0.589E+01
DAV:   9    -0.119023364647E+04   -0.22320E+01   -0.71601E+02 16128   0.979E+01    0.706E+01
DAV:  10    -0.117182215689E+04    0.18411E+02   -0.87840E+02 15104   0.272E+01    0.559E+01
DAV:  11    -0.116790628376E+04    0.39159E+01   -0.46532E+02 15680   0.333E+01    0.555E+01
DAV:  12    -0.115437312676E+04    0.13533E+02   -0.24386E+02 14912   0.202E+01    0.315E+01
DAV:  13    -0.115466348200E+04   -0.29036E+00   -0.81684E+01 16064   0.165E+01    0.282E+01
DAV:  14    -0.115603462425E+04   -0.13711E+01   -0.36363E+01 15616   0.137E+01    0.248E+01
DAV:  15    -0.115739152217E+04   -0.13569E+01   -0.19943E+01 13568   0.640E+00    0.189E+01
DAV:  16    -0.115927074538E+04   -0.18792E+01   -0.11513E+00 13248   0.231E+00    0.183E+01
DAV:  17    -0.115944865010E+04   -0.17790E+00   -0.51347E-02 13824   0.547E-01    0.184E+01
DAV:  18    -0.116015533085E+04   -0.70668E+00   -0.27154E+00 14656   0.376E+00    0.197E+01
DAV:  19    -0.116076657798E+04   -0.61125E+00   -0.10352E+01 14720   0.672E+00    0.191E+01
DAV:  20    -0.116500596868E+04   -0.42394E+01   -0.18552E+01 14144   0.101E+01    0.200E+01
DAV:  21    -0.116512817608E+04   -0.12221E+00   -0.11240E+01 14464   0.630E+00    0.124E+01
DAV:  22    -0.116577664810E+04   -0.64847E+00   -0.50850E+00 14656   0.349E+00    0.138E+01
DAV:  23    -0.116571814695E+04    0.58501E-01   -0.27721E+00 14400   0.172E+00    0.108E+01
DAV:  24    -0.116635882619E+04   -0.64068E+00   -0.29694E+00 14016   0.267E+00    0.166E+01
DAV:  25    -0.116641985227E+04   -0.61026E-01   -0.73836E-02 14016   0.943E-01    0.163E+01
DAV:  26    -0.116651057087E+04   -0.90719E-01   -0.42273E-02 14464   0.819E-01    0.147E+01
DAV:  27    -0.116687500153E+04   -0.36443E+00   -0.79323E-01 13760   0.241E+00    0.975E+00
DAV:  28    -0.116700646409E+04   -0.13146E+00   -0.27828E-01 15232   0.252E+00    0.816E+00
DAV:  29    -0.116688579178E+04    0.12067E+00   -0.41115E-01 14080   0.268E+00    0.645E+00
DAV:  30    -0.116689070131E+04   -0.49095E-02   -0.25597E-01 15680   0.266E+00    0.487E+00
DAV:  31    -0.116684904506E+04    0.41656E-01   -0.24283E-01 15552   0.268E+00    0.381E+00
DAV:  32    -0.116673116322E+04    0.11788E+00   -0.12314E-01 16000   0.174E+00    0.317E+00
DAV:  33    -0.116656295223E+04    0.16821E+00   -0.10263E-01 15936   0.194E+00    0.252E+00
DAV:  34    -0.116640541305E+04    0.15754E+00   -0.10783E-01 15936   0.191E+00    0.186E+00
DAV:  35    -0.116633187602E+04    0.73537E-01   -0.76149E-02 15296   0.117E+00    0.137E+00
DAV:  36    -0.116628400965E+04    0.47866E-01   -0.31041E-02 16064   0.829E-01    0.112E+00
DAV:  37    -0.116619308379E+04    0.90926E-01   -0.54526E-02 18048   0.152E+00    0.792E-01
DAV:  38    -0.116617574990E+04    0.17334E-01   -0.28473E-02 14080   0.448E-01    0.795E-01
DAV:  39    -0.116617599804E+04   -0.24814E-03   -0.52972E-03 12544   0.122E-01    0.789E-01
DAV:  40    -0.116617593894E+04    0.59102E-04   -0.14435E-04 15872   0.232E-02    0.796E-01
DAV:  41    -0.116616456593E+04    0.11373E-01   -0.15861E-03 16128   0.229E-01    0.710E-01
DAV:  42    -0.116611106142E+04    0.53505E-01   -0.41153E-02 17216   0.123E+00    0.544E-01
DAV:  43    -0.116610267706E+04    0.83844E-02   -0.17433E-02 14016   0.399E-01    0.708E-01
DAV:  44    -0.116609041560E+04    0.12261E-01   -0.79530E-03 15808   0.448E-01    0.584E-01
DAV:  45    -0.116607971800E+04    0.10698E-01   -0.17569E-02 16064   0.598E-01    0.286E-01
DAV:  46    -0.116608049816E+04   -0.78016E-03   -0.89708E-03 12544   0.167E-01    0.216E-01
DAV:  47    -0.116608042332E+04    0.74836E-04   -0.16037E-03 14720   0.978E-02    0.195E-01
DAV:  48    -0.116608064228E+04   -0.21895E-03   -0.11363E-03 13760   0.919E-02    0.201E-01
DAV:  49    -0.116608097363E+04   -0.33135E-03   -0.46062E-04 14336   0.667E-02    0.246E-01
DAV:  50    -0.116608116704E+04   -0.19341E-03   -0.22708E-04 14272   0.499E-02    0.222E-01
DAV:  51    -0.116608240667E+04   -0.12396E-02   -0.60229E-03 19200   0.235E-01    0.329E-01
DAV:  52    -0.116608119568E+04    0.12110E-02   -0.10676E-02 17856   0.257E-01    0.223E-01
DAV:  53    -0.116608104227E+04    0.15341E-03   -0.43771E-04 14080   0.580E-02    0.200E-01
DAV:  54    -0.116608070912E+04    0.33316E-03   -0.16073E-04 15104   0.573E-02    0.131E-01
DAV:  55    -0.116608055921E+04    0.14991E-03   -0.32788E-04 14592   0.502E-02    0.911E-02
DAV:  56    -0.116608052450E+04    0.34702E-04   -0.68090E-05 14272   0.327E-02    0.637E-02
DAV:  57    -0.116608053263E+04   -0.81294E-05   -0.40667E-04 14080   0.445E-02    0.667E-02
DAV:  58    -0.116608049004E+04    0.42596E-04   -0.13163E-04 14656   0.363E-02    0.365E-02
DAV:  59    -0.116608049492E+04   -0.48832E-05   -0.83790E-05 13568   0.221E-02    0.400E-02
DAV:  60    -0.116608049044E+04    0.44784E-05   -0.45049E-05 13632   0.172E-02    0.385E-02
DAV:  61    -0.116608048257E+04    0.78727E-05   -0.23132E-05 13824   0.122E-02    0.216E-02
DAV:  62    -0.116608048026E+04    0.23086E-05   -0.85676E-06 11520   0.917E-03    0.208E-02
DAV:  63    -0.116608048278E+04   -0.25203E-05   -0.72024E-06 12864   0.775E-03    0.313E-02
DAV:  64    -0.116608047915E+04    0.36266E-05   -0.37648E-06 10816   0.724E-03    0.198E-02
DAV:  65    -0.116608047967E+04   -0.51348E-06   -0.15015E-05 14080   0.109E-02    0.253E-02
DAV:  66    -0.116608047484E+04    0.48285E-05   -0.12555E-05 11648   0.144E-02    0.731E-03
DAV:  67    -0.116608047415E+04    0.69024E-06   -0.56773E-06 11648   0.590E-03
   1 F= -.11805763E+04 E0= -.11805672E+04  d E =-.118058E+04  mag=     0.0097
