 vasp.5.4.4.18Apr17-6-g9f103f2a35 (build May 22 2020 17:00:04) complex          
  
 executed on           IFC15_impi date 2020.09.24  13:32:31
 running on  256 total cores
 distrk:  each k-point on  256 cores,    1 groups
 distr:  one band on NCORES_PER_BAND=   4 cores,   64 groups


--------------------------------------------------------------------------------------------------------


 INCAR:
 POTCAR:    PAW_PBE C 08Apr2002                   
 POTCAR:    PAW_PBE Co 02Aug2007                  
 POTCAR:    PAW_PBE H 15Jun2001                   
 POTCAR:    PAW_PBE N 08Apr2002                   
 POTCAR:    PAW_PBE O 08Apr2002                   

 ----------------------------------------------------------------------------- 
|                                                                             |
|           W    W    AA    RRRRR   N    N  II  N    N   GGGG   !!!           |
|           W    W   A  A   R    R  NN   N  II  NN   N  G    G  !!!           |
|           W    W  A    A  R    R  N N  N  II  N N  N  G       !!!           |
|           W WW W  AAAAAA  RRRRR   N  N N  II  N  N N  G  GGG   !            |
|           WW  WW  A    A  R   R   N   NN  II  N   NN  G    G                |
|           W    W  A    A  R    R  N    N  II  N    N   GGGG   !!!           |
|                                                                             |
|      For optimal performance we recommend to set                            |
|        NCORE= 4 - approx SQRT( number of cores)                             |
|      NCORE specifies how many cores store one orbital (NPAR=cpu/NCORE).     |
|      This setting can  greatly improve the performance of VASP for DFT.     |
|      The default,   NCORE=1            might be grossly inefficient         |
|      on modern multi-core architectures or massively parallel machines.     |
|      Do your own testing !!!!                                               |
|      Unfortunately you need to use the default for GW and RPA calculations. |
|      (for HF NCORE is supported but not extensively tested yet)             |
|                                                                             |
 ----------------------------------------------------------------------------- 

 POTCAR:    PAW_PBE C 08Apr2002                   
   VRHFIN =C: s2p2                                                              
   LEXCH  = PE                                                                  
   EATOM  =   147.1560 eV,   10.8157 Ry                                         
                                                                                
   TITEL  = PAW_PBE C 08Apr2002                                                 
   LULTRA =        F    use ultrasoft PP ?                                      
   IUNSCR =        1    unscreen: 0-lin 1-nonlin 2-no                           
   RPACOR =    1.200    partial core radius                                     
   POMASS =   12.011; ZVAL   =    4.000    mass and valenz                      
   RCORE  =    1.500    outmost cutoff radius                                   
   RWIGS  =    1.630; RWIGS  =    0.863    wigner-seitz radius (au A)           
   ENMAX  =  400.000; ENMIN  =  300.000 eV                                      
   ICORE  =        2    local potential                                         
   LCOR   =        T    correct aug charges                                     
   LPAW   =        T    paw PP                                                  
   EAUG   =  644.873                                                            
   DEXC   =    0.000                                                            
   RMAX   =    1.529    core radius for proj-oper                               
   RAUG   =    1.300    factor for augmentation sphere                          
   RDEP   =    1.501    radius for radial grids                                 
   RDEPT  =    1.300    core radius for aug-charge                              
                                                                                
   Atomic configuration                                                         
    4 entries                                                                   
     n  l   j            E        occ.                                          
     1  0  0.50      -273.3789   2.0000                                         
     2  0  0.50       -13.7508   2.0000                                         
     2  1  0.50        -5.2854   2.0000                                         
     3  2  1.50        -5.4423   0.0000                                         
   Description                                                                  
     l       E           TYP  RCUT    TYP  RCUT                                 
     0    -13.7508458     23  1.200                                             
     0     -8.2022199     23  1.200                                             
     1     -5.2854383     23  1.500                                             
     1     34.0145650     23  1.500                                             
     2     -5.4423304      7  1.500                                             
  local pseudopotential read in
  partial core-charges read in
  partial kinetic energy density read in
  atomic valenz-charges read in
  non local Contribution for L=           0  read in
    real space projection operators read in
  non local Contribution for L=           0  read in
    real space projection operators read in
  non local Contribution for L=           1  read in
    real space projection operators read in
  non local Contribution for L=           1  read in
    real space projection operators read in
    PAW grid and wavefunctions read in
 
   number of l-projection  operators is LMAX  =           4
   number of lm-projection operators is LMMAX =           8
 
 POTCAR:    PAW_PBE Co 02Aug2007                  
   VRHFIN =Co: d8 s1                                                            
   LEXCH  = PE                                                                  
   EATOM  =   813.3670 eV,   59.7808 Ry                                         
                                                                                
   TITEL  = PAW_PBE Co 02Aug2007                                                
   LULTRA =        F    use ultrasoft PP ?                                      
   IUNSCR =        1    unscreen: 0-lin 1-nonlin 2-no                           
   RPACOR =    2.000    partial core radius                                     
   POMASS =   58.933; ZVAL   =    9.000    mass and valenz                      
   RCORE  =    2.300    outmost cutoff radius                                   
   RWIGS  =    2.460; RWIGS  =    1.302    wigner-seitz radius (au A)           
   ENMAX  =  267.968; ENMIN  =  200.976 eV                                      
   RCLOC  =    1.203    cutoff for local pot                                    
   LCOR   =        T    correct aug charges                                     
   LPAW   =        T    paw PP                                                  
   EAUG   =  477.818                                                            
   DEXC   =    0.000                                                            
   RMAX   =    2.360    core radius for proj-oper                               
   RAUG   =    1.300    factor for augmentation sphere                          
   RDEP   =    2.393    radius for radial grids                                 
   RDEPT  =    1.864    core radius for aug-charge                              
                                                                                
   Atomic configuration                                                         
    9 entries                                                                   
     n  l   j            E        occ.                                          
     1  0  0.50     -7587.6674   2.0000                                         
     2  0  0.50      -893.6084   2.0000                                         
     2  1  1.50      -764.5805   6.0000                                         
     3  0  0.50       -97.5973   2.0000                                         
     3  1  1.50       -60.9648   6.0000                                         
     3  2  2.50        -4.2382   8.0000                                         
     4  0  0.50        -4.3746   1.0000                                         
     4  1  1.50        -4.0817   0.0000                                         
     4  3  2.50        -1.3606   0.0000                                         
   Description                                                                  
     l       E           TYP  RCUT    TYP  RCUT                                 
     2     -4.2382362     23  2.300                                             
     2     -5.5988188     23  2.300                                             
     0     -4.3745797     23  2.300                                             
     0      5.7660125     23  2.300                                             
     1     -2.7211652     23  2.300                                             
     1     16.9860234     23  2.300                                             
  local pseudopotential read in
  partial core-charges read in
  partial kinetic energy density read in
  atomic valenz-charges read in
  non local Contribution for L=           2  read in
    real space projection operators read in
  non local Contribution for L=           2  read in
    real space projection operators read in
  non local Contribution for L=           0  read in
    real space projection operators read in
  non local Contribution for L=           0  read in
    real space projection operators read in
  non local Contribution for L=           1  read in
    real space projection operators read in
  non local Contribution for L=           1  read in
    real space projection operators read in
    PAW grid and wavefunctions read in
 
   number of l-projection  operators is LMAX  =           6
   number of lm-projection operators is LMMAX =          18
 
 POTCAR:    PAW_PBE H 15Jun2001                   
   VRHFIN =H: ultrasoft test                                                    
   LEXCH  = PE                                                                  
   EATOM  =    12.4884 eV,    0.9179 Ry                                         
                                                                                
   TITEL  = PAW_PBE H 15Jun2001                                                 
   LULTRA =        F    use ultrasoft PP ?                                      
   IUNSCR =        0    unscreen: 0-lin 1-nonlin 2-no                           
   RPACOR =    0.000    partial core radius                                     
   POMASS =    1.000; ZVAL   =    1.000    mass and valenz                      
   RCORE  =    1.100    outmost cutoff radius                                   
   RWIGS  =    0.700; RWIGS  =    0.370    wigner-seitz radius (au A)           
   ENMAX  =  250.000; ENMIN  =  200.000 eV                                      
   RCLOC  =    0.701    cutoff for local pot                                    
   LCOR   =        T    correct aug charges                                     
   LPAW   =        T    paw PP                                                  
   EAUG   =  400.000                                                            
   RMAX   =    1.123    core radius for proj-oper                               
   RAUG   =    1.200    factor for augmentation sphere                          
   RDEP   =    1.112    radius for radial grids                                 
   RDEPT  =    0.926    core radius for aug-charge                              
                                                                                
   Atomic configuration                                                         
    2 entries                                                                   
     n  l   j            E        occ.                                          
     1  0  0.50        -6.4927   1.0000                                         
     2  1  0.50        -3.4015   0.0000                                         
   Description                                                                  
     l       E           TYP  RCUT    TYP  RCUT                                 
     0     -6.4927494     23  1.100                                             
     0      6.8029130     23  1.100                                             
     1     -4.0817478     23  1.100                                             
  local pseudopotential read in
  atomic valenz-charges read in
  non local Contribution for L=           0  read in
    real space projection operators read in
  non local Contribution for L=           0  read in
    real space projection operators read in
  non local Contribution for L=           1  read in
    real space projection operators read in
    PAW grid and wavefunctions read in
 
   number of l-projection  operators is LMAX  =           3
   number of lm-projection operators is LMMAX =           5
 
 POTCAR:    PAW_PBE N 08Apr2002                   
   VRHFIN =N: s2p3                                                              
   LEXCH  = PE                                                                  
   EATOM  =   264.5486 eV,   19.4438 Ry                                         
                                                                                
   TITEL  = PAW_PBE N 08Apr2002                                                 
   LULTRA =        F    use ultrasoft PP ?                                      
   IUNSCR =        1    unscreen: 0-lin 1-nonlin 2-no                           
   RPACOR =    1.200    partial core radius                                     
   POMASS =   14.001; ZVAL   =    5.000    mass and valenz                      
   RCORE  =    1.500    outmost cutoff radius                                   
   RWIGS  =    1.400; RWIGS  =    0.741    wigner-seitz radius (au A)           
   ENMAX  =  400.000; ENMIN  =  300.000 eV                                      
   ICORE  =        2    local potential                                         
   LCOR   =        T    correct aug charges                                     
   LPAW   =        T    paw PP                                                  
   EAUG   =  627.112                                                            
   DEXC   =    0.000                                                            
   RMAX   =    1.529    core radius for proj-oper                               
   RAUG   =    1.300    factor for augmentation sphere                          
   RDEP   =    1.514    radius for radial grids                                 
   RDEPT  =    1.338    core radius for aug-charge                              
                                                                                
   Atomic configuration                                                         
    4 entries                                                                   
     n  l   j            E        occ.                                          
     1  0  0.50      -384.7179   2.0000                                         
     2  0  0.50       -18.5828   2.0000                                         
     2  1  0.50        -7.0898   3.0000                                         
     3  2  1.50        -6.8029   0.0000                                         
   Description                                                                  
     l       E           TYP  RCUT    TYP  RCUT                                 
     0    -18.5828119     23  1.200                                             
     0    -13.5018863     23  1.200                                             
     1     -7.0897853     23  1.500                                             
     1      9.5240782     23  1.500                                             
     2     -6.8029130      7  1.500                                             
  local pseudopotential read in
  partial core-charges read in
  partial kinetic energy density read in
  atomic valenz-charges read in
  non local Contribution for L=           0  read in
    real space projection operators read in
  non local Contribution for L=           0  read in
    real space projection operators read in
  non local Contribution for L=           1  read in
    real space projection operators read in
  non local Contribution for L=           1  read in
    real space projection operators read in
    PAW grid and wavefunctions read in
 
   number of l-projection  operators is LMAX  =           4
   number of lm-projection operators is LMMAX =           8
 
 POTCAR:    PAW_PBE O 08Apr2002                   
   VRHFIN =O: s2p4                                                              
   LEXCH  = PE                                                                  
   EATOM  =   432.3788 eV,   31.7789 Ry                                         
                                                                                
   TITEL  = PAW_PBE O 08Apr2002                                                 
   LULTRA =        F    use ultrasoft PP ?                                      
   IUNSCR =        1    unscreen: 0-lin 1-nonlin 2-no                           
   RPACOR =    1.200    partial core radius                                     
   POMASS =   16.000; ZVAL   =    6.000    mass and valenz                      
   RCORE  =    1.520    outmost cutoff radius                                   
   RWIGS  =    1.550; RWIGS  =    0.820    wigner-seitz radius (au A)           
   ENMAX  =  400.000; ENMIN  =  300.000 eV                                      
   ICORE  =        2    local potential                                         
   LCOR   =        T    correct aug charges                                     
   LPAW   =        T    paw PP                                                  
   EAUG   =  605.392                                                            
   DEXC   =    0.000                                                            
   RMAX   =    1.553    core radius for proj-oper                               
   RAUG   =    1.300    factor for augmentation sphere                          
   RDEP   =    1.550    radius for radial grids                                 
   RDEPT  =    1.329    core radius for aug-charge                              
                                                                                
   Atomic configuration                                                         
    4 entries                                                                   
     n  l   j            E        occ.                                          
     1  0  0.50      -514.6923   2.0000                                         
     2  0  0.50       -23.9615   2.0000                                         
     2  1  0.50        -9.0305   4.0000                                         
     3  2  1.50        -9.5241   0.0000                                         
   Description                                                                  
     l       E           TYP  RCUT    TYP  RCUT                                 
     0    -23.9615318     23  1.200                                             
     0     -9.5240782     23  1.200                                             
     1     -9.0304911     23  1.520                                             
     1      8.1634956     23  1.520                                             
     2     -9.5240782      7  1.500                                             
  local pseudopotential read in
  partial core-charges read in
  partial kinetic energy density read in
  kinetic energy density of atom read in
  atomic valenz-charges read in
  non local Contribution for L=           0  read in
    real space projection operators read in
  non local Contribution for L=           0  read in
    real space projection operators read in
  non local Contribution for L=           1  read in
    real space projection operators read in
  non local Contribution for L=           1  read in
    real space projection operators read in
    PAW grid and wavefunctions read in
 
   number of l-projection  operators is LMAX  =           4
   number of lm-projection operators is LMMAX =           8
 
 Optimization of the real space projectors (new method)

 maximal supplied QI-value         = 25.13
 optimisation between [QCUT,QGAM] = [ 12.32, 24.88] = [ 42.47,173.37] Ry 
 Optimized for a Real-space Cutoff    1.06 Angstroem

   l    n(q)    QCUT    max X(q) W(low)/X(q) W(high)/X(q)  e(spline) 
   0      8    12.315   115.676    0.34E-03    0.18E-03    0.23E-06
   0      8    12.315    87.132    0.34E-03    0.18E-03    0.22E-06
   1      7    12.315     4.429    0.45E-03    0.12E-03    0.18E-06
   1      7    12.315     2.733    0.35E-03    0.97E-04    0.15E-06
 Optimization of the real space projectors (new method)

 maximal supplied QI-value         = 16.25
 optimisation between [QCUT,QGAM] = [ 12.51, 25.03] = [ 43.85,175.40] Ry 
 Optimized for a Real-space Cutoff    1.31 Angstroem

   l    n(q)    QCUT    max X(q) W(low)/X(q) W(high)/X(q)  e(spline) 
   2      9    12.514    65.824    0.30E-03    0.46E-03    0.43E-06
   2      9    12.514    61.429    0.31E-03    0.46E-03    0.44E-06
   0     10    12.514    56.174    0.90E-04    0.33E-03    0.30E-06
   0     10    12.514    31.263    0.81E-04    0.30E-03    0.28E-06
   1      9    12.514    19.828    0.38E-03    0.65E-04    0.24E-06
   1      9    12.514    15.139    0.32E-03    0.60E-04    0.20E-06
 Optimization of the real space projectors (new method)

 maximal supplied QI-value         = 34.20
 optimisation between [QCUT,QGAM] = [ 12.31, 24.97] = [ 42.46,174.58] Ry 
 Optimized for a Real-space Cutoff    1.00 Angstroem

   l    n(q)    QCUT    max X(q) W(low)/X(q) W(high)/X(q)  e(spline) 
   0      7    12.313    19.460    0.14E-03    0.42E-03    0.16E-06
   0      7    12.313    12.209    0.12E-03    0.40E-03    0.16E-06
   1      7    12.313     4.655    0.33E-03    0.59E-03    0.89E-07
 Optimization of the real space projectors (new method)

 maximal supplied QI-value         = 25.13
 optimisation between [QCUT,QGAM] = [ 12.32, 24.88] = [ 42.47,173.37] Ry 
 Optimized for a Real-space Cutoff    1.20 Angstroem

   l    n(q)    QCUT    max X(q) W(low)/X(q) W(high)/X(q)  e(spline) 
   0      9    12.315    79.467    0.14E-03    0.22E-04    0.37E-06
   0      9    12.315    66.151    0.14E-03    0.23E-04    0.36E-06
   1      8    12.315    22.077    0.30E-03    0.54E-03    0.45E-06
   1      8    12.315    15.894    0.30E-03    0.55E-03    0.45E-06
 Optimization of the real space projectors (new method)

 maximal supplied QI-value         = 24.76
 optimisation between [QCUT,QGAM] = [ 12.38, 25.00] = [ 42.90,175.06] Ry 
 Optimized for a Real-space Cutoff    1.13 Angstroem

   l    n(q)    QCUT    max X(q) W(low)/X(q) W(high)/X(q)  e(spline) 
   0      8    12.378    20.381    0.16E-03    0.54E-05    0.27E-06
   0      8    12.378    15.268    0.17E-03    0.61E-05    0.29E-06
   1      8    12.378     5.964    0.38E-03    0.23E-03    0.28E-06
   1      8    12.378     5.382    0.33E-03    0.20E-03    0.25E-06
  PAW_PBE C 08Apr2002                   :
 energy of atom  1       EATOM= -147.1560
 kinetic energy error for atom=    0.0057 (will be added to EATOM!!)
  PAW_PBE Co 02Aug2007                  :
 energy of atom  2       EATOM= -813.3670
 kinetic energy error for atom=    0.0018 (will be added to EATOM!!)
  PAW_PBE H 15Jun2001                   :
 energy of atom  3       EATOM=  -12.4884
 kinetic energy error for atom=    0.0004 (will be added to EATOM!!)
  PAW_PBE N 08Apr2002                   :
 energy of atom  4       EATOM= -264.5486
 kinetic energy error for atom=    0.0103 (will be added to EATOM!!)
  PAW_PBE O 08Apr2002                   :
 energy of atom  5       EATOM= -432.3788
 kinetic energy error for atom=    0.0168 (will be added to EATOM!!)
 
 
 POSCAR: Co_E                                    
  positions in direct lattice
  velocities in cartesian coordinates
 exchange correlation table for  LEXCH =        8
   RHO(1)=    0.500       N(1)  =     2000
   RHO(2)=  100.500       N(2)  =     4000
 


--------------------------------------------------------------------------------------------------------


 ion  position               nearest neighbor table
   1  0.889  0.953  0.115- 107 1.08 117 1.34  65 1.39
   2  0.752  0.947  0.397- 112 1.09 118 1.36  65 1.40
   3  0.896  0.795  0.860- 116 1.08 119 1.34  66 1.39
   4  0.611  0.453  0.615- 110 1.08 120 1.34  67 1.39
   5  0.742  0.300  0.078- 111 1.09 121 1.36  68 1.40
   6  0.247  0.801  0.080- 115 1.09 122 1.36  69 1.40
   7  0.747  0.447  0.897- 101 1.09 123 1.36  67 1.40
   8  0.604  0.295  0.360- 113 1.08 124 1.34  68 1.39
   9  0.259  0.448  0.398- 114 1.09 125 1.36  70 1.40
  10  0.110  0.796  0.361- 104 1.08 126 1.34  69 1.39
  11  0.241  0.948  0.898- 105 1.09 127 1.36  71 1.40
  12  0.253  0.301  0.579- 102 1.09 128 1.36  72 1.40
  13  0.758  0.800  0.578- 108 1.09 129 1.36  66 1.40
  14  0.103  0.953  0.616- 109 1.08 130 1.34  71 1.39
  15  0.390  0.295  0.861- 106 1.08 131 1.34  72 1.39
  16  0.396  0.453  0.116- 103 1.08 132 1.34  70 1.39
  17  0.680  0.028  0.098- 141 1.23 133 1.42  33 1.48
  18  0.820  0.045  0.435- 142 1.23 133 1.41  34 1.48
  19  0.831  0.702  0.541- 143 1.23 134 1.41  35 1.48
  20  0.680  0.545  0.935- 144 1.23 135 1.41  36 1.48
  21  0.669  0.202  0.041- 145 1.23 136 1.41  37 1.48
  22  0.319  0.720  0.379- 146 1.23 137 1.42  38 1.48
  23  0.820  0.528  0.598- 147 1.23 135 1.42  39 1.48
  24  0.810  0.219  0.378- 148 1.23 136 1.42  40 1.48
  25  0.191  0.529  0.098- 149 1.23 138 1.42  41 1.48
  26  0.180  0.703  0.041- 150 1.23 137 1.41  42 1.48
  27  0.169  0.046  0.935- 151 1.23 139 1.41  43 1.48
  28  0.320  0.203  0.541- 152 1.23 140 1.41  44 1.48
  29  0.690  0.719  0.878- 153 1.23 134 1.42  45 1.48
  30  0.309  0.029  0.598- 154 1.23 139 1.42  46 1.48
  31  0.180  0.220  0.878- 155 1.23 140 1.41  47 1.48
  32  0.331  0.546  0.435- 156 1.23 138 1.41  48 1.48
  33  0.682  0.073  0.084-  49 1.39  73 1.41  17 1.48
  34  0.810  0.090  0.421-  50 1.39  73 1.41  18 1.48
  35  0.822  0.657  0.555-  51 1.39  74 1.41  19 1.48
  36  0.690  0.590  0.921-  52 1.39  75 1.41  20 1.48
  37  0.678  0.157  0.055-  53 1.39  76 1.41  21 1.48
  38  0.318  0.676  0.392-  54 1.39  77 1.41  22 1.48
  39  0.818  0.573  0.585-  55 1.39  75 1.41  23 1.48
  40  0.807  0.175  0.391-  56 1.39  76 1.41  24 1.48
  41  0.193  0.574  0.084-  57 1.39  78 1.41  25 1.48
  42  0.189  0.658  0.055-  58 1.39  77 1.41  26 1.48
  43  0.178  0.091  0.921-  59 1.39  79 1.41  27 1.48
  44  0.310  0.158  0.555-  60 1.39  80 1.41  28 1.48
  45  0.693  0.675  0.892-  61 1.39  74 1.41  29 1.48
  46  0.307  0.074  0.584-  62 1.39  79 1.41  30 1.48
  47  0.182  0.176  0.892-  63 1.39  80 1.41  31 1.48
  48  0.322  0.591  0.421-  64 1.39  78 1.41  32 1.48
  49  0.620  0.086  0.913-  88 1.09  33 1.39  53 1.40
  50  0.871  0.120  0.577-  99 1.09  34 1.39  56 1.40
  51  0.883  0.628  0.399-  93 1.09  35 1.39  55 1.40
  52  0.629  0.620  0.077-  90 1.09  36 1.39  61 1.40
  53  0.617  0.128  0.899-  98 1.09  37 1.39  49 1.40
  54  0.379  0.663  0.564-  96 1.09  38 1.39  64 1.40
  55  0.879  0.586  0.413-  86 1.09  39 1.39  51 1.40
  56  0.868  0.162  0.563-  87 1.09  40 1.39  50 1.40
  57  0.132  0.587  0.913-  95 1.09  41 1.39  58 1.40
  58  0.129  0.629  0.899-  91 1.09  42 1.39  57 1.40
  59  0.117  0.121  0.077-  92 1.09  43 1.39  63 1.40
  60  0.371  0.129  0.399-  85 1.09  44 1.39  62 1.40
  61  0.632  0.662  0.063-  89 1.09  45 1.39  52 1.40
  62  0.368  0.087  0.412- 100 1.09  46 1.39  60 1.40
  63  0.121  0.163  0.063-  94 1.09  47 1.39  59 1.40
  64  0.383  0.621  0.577-  97 1.09  48 1.39  54 1.40
  65  0.787  0.974  0.264-   1 1.39   2 1.40 133 1.42
  66  0.795  0.773  0.711-   3 1.39  13 1.40 134 1.42
  67  0.712  0.474  0.764-   4 1.39   7 1.40 135 1.42
  68  0.705  0.273  0.211-   8 1.39   5 1.40 136 1.42
  69  0.212  0.774  0.212-  10 1.39   6 1.40 137 1.42
  70  0.296  0.475  0.265-  16 1.39   9 1.40 138 1.42
  71  0.204  0.975  0.765-  14 1.39  11 1.40 139 1.42
  72  0.288  0.274  0.712-  15 1.39  12 1.40 140 1.42
  73  0.745  0.102  0.246-  34 1.41  33 1.41  76 1.42
  74  0.756  0.645  0.731-  35 1.41  45 1.41  75 1.42
  75  0.755  0.602  0.746-  36 1.41  39 1.41  74 1.42
  76  0.744  0.145  0.230-  37 1.41  40 1.41  73 1.42
  77  0.255  0.646  0.231-  42 1.41  38 1.41  78 1.42
  78  0.256  0.603  0.246-  48 1.41  41 1.41  77 1.42
  79  0.244  0.103  0.746-  43 1.41  46 1.41  80 1.42
  80  0.245  0.146  0.730-  44 1.41  47 1.41  79 1.42
  81  0.056  0.874  0.988- 119 1.96 117 1.96 127 1.97 122 1.97
  82  0.943  0.874  0.488- 130 1.96 126 1.96 129 1.97 118 1.97
  83  0.444  0.374  0.488- 124 1.96 120 1.96 125 1.97 128 1.97
  84  0.556  0.374  0.988- 132 1.96 131 1.96 121 1.97 123 1.97
  85  0.420  0.139  0.265-  60 1.09
  86  0.923  0.562  0.289-  55 1.09
  87  0.912  0.185  0.687-  56 1.09
  88  0.576  0.062  0.789-  49 1.09
  89  0.588  0.685  0.187-  61 1.09
  90  0.579  0.609  0.211-  52 1.09
  91  0.079  0.639  0.765-  58 1.09
  92  0.068  0.110  0.211-  59 1.09
  93  0.932  0.638  0.265-  51 1.09
  94  0.077  0.186  0.187-  63 1.09
  95  0.088  0.563  0.789-  57 1.09
  96  0.423  0.686  0.687-  54 1.09
  97  0.432  0.610  0.711-  64 1.09
  98  0.568  0.138  0.765-  53 1.09
  99  0.920  0.109  0.711-  50 1.09
 100  0.412  0.063  0.289-  62 1.09
 101  0.819  0.452  0.036-   7 1.09
 102  0.182  0.296  0.441-  12 1.09
 103  0.451  0.464  0.987-  16 1.08
 104  0.056  0.785  0.491-  10 1.08
 105  0.313  0.953  0.037-  11 1.09
 106  0.444  0.285  0.991-  15 1.08
 107  0.943  0.963  0.986-   1 1.08
 108  0.686  0.795  0.440-  13 1.09
 109  0.049  0.964  0.487-  14 1.08
 110  0.557  0.463  0.486-   4 1.08
 111  0.813  0.295  0.940-   5 1.09
 112  0.681  0.952  0.536-   2 1.09
 113  0.549  0.285  0.490-   8 1.08
 114  0.187  0.453  0.536-   9 1.09
 115  0.318  0.796  0.941-   6 1.09
 116  0.950  0.785  0.989-   3 1.08
 117  0.916  0.915  0.157-   1 1.34 118 1.38  81 1.96
 118  0.832  0.911  0.331-   2 1.36 117 1.38  82 1.97
 119  0.920  0.833  0.818-   3 1.34 129 1.38  81 1.96
 120  0.583  0.415  0.658-   4 1.34 123 1.38  83 1.96
 121  0.665  0.337  0.145-   5 1.36 124 1.38  84 1.97
 122  0.167  0.837  0.146-   6 1.36 126 1.38  81 1.97
 123  0.668  0.411  0.831-   7 1.36 120 1.38  84 1.97
 124  0.580  0.333  0.318-   8 1.34 121 1.38  83 1.96
 125  0.336  0.412  0.332-   9 1.36 132 1.38  83 1.97
 126  0.083  0.833  0.319-  10 1.34 122 1.38  82 1.96
 127  0.164  0.912  0.832-  11 1.36 130 1.38  81 1.97
 128  0.333  0.337  0.646-  12 1.36 131 1.38  83 1.97
 129  0.835  0.837  0.645-  13 1.36 119 1.38  82 1.97
 130  0.079  0.915  0.658-  14 1.34 127 1.38  82 1.96
 131  0.417  0.333  0.819-  15 1.34 128 1.38  84 1.96
 132  0.421  0.415  0.158-  16 1.34 125 1.38  84 1.96
 133  0.752  0.017  0.273-  18 1.41  17 1.42  65 1.42
 134  0.761  0.730  0.702-  19 1.41  29 1.42  66 1.42
 135  0.748  0.517  0.773-  20 1.41  23 1.42  67 1.42
 136  0.738  0.230  0.202-  21 1.41  24 1.42  68 1.42
 137  0.248  0.731  0.203-  26 1.41  22 1.42  69 1.42
 138  0.262  0.518  0.274-  32 1.41  25 1.42  70 1.42
 139  0.238  0.018  0.774-  27 1.41  30 1.42  71 1.42
 140  0.252  0.231  0.703-  28 1.41  31 1.41  72 1.42
 141  0.620  0.002  0.964-  17 1.23
 142  0.885  0.034  0.580-  18 1.23
 143  0.896  0.714  0.396-  19 1.23
 144  0.615  0.534  0.080-  20 1.23
 145  0.604  0.214  0.896-  21 1.23
 146  0.379  0.747  0.512-  22 1.23
 147  0.879  0.502  0.464-  23 1.23
 148  0.870  0.245  0.511-  24 1.23
 149  0.131  0.503  0.964-  25 1.23
 150  0.115  0.715  0.896-  26 1.23
 151  0.103  0.034  0.080-  27 1.23
 152  0.385  0.215  0.396-  28 1.23
 153  0.630  0.745  0.011-  29 1.23
 154  0.368  0.003  0.464-  30 1.23
 155  0.121  0.246  0.012-  31 1.23
 156  0.397  0.534  0.580-  32 1.23
 

IMPORTANT INFORMATION: All symmetrisations will be switched off!
NOSYMM: (Re-)initialisation of all symmetry stuff for point group C_1.

 
 

Automatic generation of k-mesh.
 generate k-points for:    3    1    4
Space group operators:
 irot       det(A)        alpha          n_x          n_y          n_z        tau_x        tau_y        tau_z
    1     1.000000     0.000000     1.000000     0.000000     0.000000     0.000000     0.000000     0.000000
 
 Subroutine IBZKPT returns following result:
 ===========================================
 
 Found      7 irreducible k-points:
 
 Following reciprocal coordinates:
            Coordinates               Weight
  0.000000  0.000000  0.000000      1.000000
  0.333333 -0.000000  0.000000      2.000000
  0.000000 -0.000000  0.250000      2.000000
  0.333333 -0.000000  0.250000      2.000000
 -0.333333  0.000000  0.250000      2.000000
  0.000000 -0.000000  0.500000      1.000000
  0.333333  0.000000  0.500000      2.000000
 
 Following cartesian coordinates:
            Coordinates               Weight
  0.000000  0.000000  0.000000      1.000000
  0.040353  0.000000  0.000003      2.000000
 -0.000002  0.003245  0.037914      2.000000
  0.040351  0.003245  0.037917      2.000000
 -0.040355  0.003244  0.037912      2.000000
 -0.000004  0.006490  0.075829      1.000000
  0.040349  0.006490  0.075831      2.000000
 


--------------------------------------------------------------------------------------------------------




 Dimension of arrays:
   k-points           NKPTS =      7   k-points in BZ     NKDIM =      7   number of bands    NBANDS=    384
   number of dos      NEDOS =    301   number of ions     NIONS =    156
   non local maximal  LDIM  =      6   non local SUM 2l+1 LMDIM =     18
   total plane-waves  NPLWV = 400000
   max r-space proj   IRMAX =   2150   max aug-charges    IRDMAX=   9060
   dimension x,y,z NGX =    50 NGY =  200 NGZ =   40
   dimension x,y,z NGXF=   100 NGYF=  400 NGZF=   80
   support grid    NGXF=   100 NGYF=  400 NGZF=   80
   ions per type =              80   4  32  24  16
   NGX,Y,Z   is equivalent  to a cutoff of  10.06, 10.14,  9.96 a.u.
   NGXF,Y,Z  is equivalent  to a cutoff of  20.13, 20.27, 19.92 a.u.

 SYSTEM =  flex_MOF                                
 POSCAR =  Co_E                                    

 Startparameter for this run:
   NWRITE =      2    write-flag & timer
   PREC   = normal    normal or accurate (medium, high low for compatibility)
   ISTART =      0    job   : 0-new  1-cont  2-samecut
   ICHARG =      2    charge: 1-file 2-atom 10-const
   ISPIN  =      2    spin polarized calculation?
   LNONCOLLINEAR =      F non collinear calculations
   LSORBIT =      F    spin-orbit coupling
   INIWAV =      1    electr: 0-lowe 1-rand  2-diag
   LASPH  =      F    aspherical Exc in radial PAW
   METAGGA=      F    non-selfconsistent MetaGGA calc.

 Electronic Relaxation 1
   ENCUT  =  600.0 eV  44.10 Ry    6.64 a.u.  16.50 65.52 13.33*2*pi/ulx,y,z
   ENINI  =  600.0     initial cutoff
   ENAUG  =  644.9 eV  augmentation charge cutoff
   NELM   =     80;   NELMIN=  8; NELMDL= -5     # of ELM steps 
   EDIFF  = 0.1E-05   stopping-criterion for ELM
   LREAL  =      T    real-space projection
   NLSPLINE    = F    spline interpolate recip. space projectors
   LCOMPAT=      F    compatible to vasp.4.4
   GGA_COMPAT  = T    GGA compatible to vasp.4.4-vasp.4.6
   LMAXPAW     = -100 max onsite density
   LMAXMIX     =    2 max onsite mixed and CHGCAR
   VOSKOWN=      0    Vosko Wilk Nusair interpolation
   ROPT   =   -0.00050  -0.00050  -0.00050  -0.00050
   ROPT   =   -0.00050
 Ionic relaxation
   EDIFFG = -.1E-01   stopping-criterion for IOM
   NSW    =    500    number of steps for IOM
   NBLOCK =      1;   KBLOCK =    500    inner block; outer block 
   IBRION =      2    ionic relax: 0-MD 1-quasi-New 2-CG
   NFREE  =      1    steps in history (QN), initial steepest desc. (CG)
   ISIF   =      4    stress and relaxation
   IWAVPR =     11    prediction:  0-non 1-charg 2-wave 3-comb
   ISYM   =      0    0-nonsym 1-usesym 2-fastsym
   LCORR  =      T    Harris-Foulkes like correction to forces

   POTIM  = 0.5000    time-step for ionic-motion
   TEIN   =    0.0    initial temperature
   TEBEG  =    0.0;   TEEND  =   0.0 temperature during run
   SMASS  =  -3.00    Nose mass-parameter (am)
   estimated Nose-frequenzy (Omega)   =  0.10E-29 period in steps =****** mass=  -0.156E-26a.u.
   SCALEE = 1.0000    scale energy and forces
   NPACO  =    256;   APACO  = 16.0  distance and # of slots for P.C.
   PSTRESS=    0.0 pullay stress

  Mass of Ions in am
   POMASS =  12.01 58.93  1.00 14.00 16.00
  Ionic Valenz
   ZVAL   =   4.00  9.00  1.00  5.00  6.00
  Atomic Wigner-Seitz radii
   RWIGS  =  -1.00 -1.00 -1.00 -1.00 -1.00
  virtual crystal weights 
   VCA    =   1.00  1.00  1.00  1.00  1.00
   NELECT =     604.0000    total number of electrons
   NUPDOWN=      -1.0000    fix difference up-down

 DOS related values:
   EMIN   =  10.00;   EMAX   =-10.00  energy-range for DOS
   EFERMI =   0.00
   ISMEAR =     0;   SIGMA  =   0.05  broadening in eV -4-tet -1-fermi 0-gaus

 Electronic relaxation 2 (details)
   IALGO  =     38    algorithm
   LDIAG  =      T    sub-space diagonalisation (order eigenvalues)
   LSUBROT=      F    optimize rotation matrix (better conditioning)
   TURBO    =      0    0=normal 1=particle mesh
   IRESTART =      0    0=no restart 2=restart with 2 vectors
   NREBOOT  =      0    no. of reboots
   NMIN     =      0    reboot dimension
   EREF     =   0.00    reference energy to select bands
   IMIX   =      4    mixing-type and parameters
     AMIX     =   0.40;   BMIX     =  1.00
     AMIX_MAG =   1.60;   BMIX_MAG =  1.00
     AMIN     =   0.10
     WC   =   100.;   INIMIX=   1;  MIXPRE=   1;  MAXMIX= -45

 Intra band minimization:
   WEIMIN = 0.0010     energy-eigenvalue tresh-hold
   EBREAK =  0.65E-09  absolut break condition
   DEPER  =   0.30     relativ break condition  

   TIME   =   0.40     timestep for ELM

  volume/ion in A,a.u.               =      11.41        77.01
  Fermi-wavevector in a.u.,A,eV,Ry     =   1.141811  2.157710 17.738355  1.303732
  Thomas-Fermi vector in A             =   2.278510
 
 Write flags
   LWAVE        =      T    write WAVECAR
   LDOWNSAMPLE  =      F    k-point downsampling of WAVECAR
   LCHARG       =      T    write CHGCAR
   LVTOT        =      F    write LOCPOT, total local potential
   LVHAR        =      F    write LOCPOT, Hartree potential only
   LELF         =      F    write electronic localiz. function (ELF)
   LORBIT       =     11    0 simple, 1 ext, 2 COOP (PROOUT), +10 PAW based schemes


 Dipole corrections
   LMONO  =      F    monopole corrections only (constant potential shift)
   LDIPOL =      F    correct potential (dipole corrections)
   IDIPOL =      0    1-x, 2-y, 3-z, 4-all directions 
   EPSILON=  1.0000000 bulk dielectric constant

 Exchange correlation treatment:
   GGA     =    PE    GGA type
   LEXCH   =     8    internal setting for exchange type
   VOSKOWN=      0    Vosko Wilk Nusair interpolation
   LHFCALC =     F    Hartree Fock is set to
   LHFONE  =     F    Hartree Fock one center treatment
   AEXX    =    0.0000 exact exchange contribution

 Linear response parameters
   LEPSILON=     F    determine dielectric tensor
   LRPA    =     F    only Hartree local field effects (RPA)
   LNABLA  =     F    use nabla operator in PAW spheres
   LVEL    =     F    velocity operator in full k-point grid
   LINTERFAST=   F  fast interpolation
   KINTER  =     0    interpolate to denser k-point grid
   CSHIFT  =0.1000    complex shift for real part using Kramers Kronig
   OMEGAMAX=  -1.0    maximum frequency
   DEG_THRESHOLD= 0.2000000E-02 threshold for treating states as degnerate
   RTIME   =   -0.100 relaxation time in fs
  (WPLASMAI=    0.000 imaginary part of plasma frequency in eV, 0.658/RTIME)
   DFIELD  = 0.0000000 0.0000000 0.0000000 field for delta impulse in time
 
 Orbital magnetization related:
   ORBITALMAG=     F  switch on orbital magnetization
   LCHIMAG   =     F  perturbation theory with respect to B field
   DQ        =  0.001000  dq finite difference perturbation B field
   LLRAUG    =     F  two centre corrections for induced B field



--------------------------------------------------------------------------------------------------------


 conjugate gradient relaxation of ions
 charge density and potential will be updated during run
 spin polarized calculation
 Variant of blocked Davidson
 Davidson routine will perform the subspace rotation
 perform sub-space diagonalisation
    after iterative eigenvector-optimisation
 modified Broyden-mixing scheme, WC =      100.0
 initial mixing is a Kerker type mixing with AMIX =  0.4000 and BMIX =      1.0000
 Hartree-type preconditioning will be used
 using additional bands           82
 real space projection scheme for non local part
 use partial core corrections
 calculate Harris-corrections to forces 
   (improved forces if not selfconsistent)
 use gradient corrections 
 use of overlap-Matrix (Vanderbilt PP)
 Gauss-broadening in eV      SIGMA  =   0.05


--------------------------------------------------------------------------------------------------------


  energy-cutoff  :      600.00
  volume of cell :     1780.24
      direct lattice vectors                 reciprocal lattice vectors
     8.260495287 -0.000338507  0.000483625     0.121058116  0.000001070  0.000007512
    -0.000115312 32.684174120 -2.797194045     0.000001094  0.030843713  0.002896217
    -0.000406967 -0.624171249  6.647209179    -0.000008347  0.012979259  0.151657824

  length of vectors
     8.260495308 32.803651206  6.676449639     0.121058116  0.030979391  0.152212209


 
 k-points in units of 2pi/SCALE and weight: read from INCAR                         
   0.00000000  0.00000000  0.00000000       0.083
   0.04035271  0.00000036  0.00000250       0.167
  -0.00000209  0.00324481  0.03791446       0.167
   0.04035062  0.00324517  0.03791696       0.167
  -0.04035479  0.00324446  0.03791195       0.167
  -0.00000417  0.00648963  0.07582891       0.083
   0.04034853  0.00648999  0.07583142       0.167
 
 k-points in reciprocal lattice and weights: read from INCAR                         
   0.00000000  0.00000000  0.00000000       0.083
   0.33333333 -0.00000000  0.00000000       0.167
   0.00000000 -0.00000000  0.25000000       0.167
   0.33333333 -0.00000000  0.25000000       0.167
  -0.33333333  0.00000000  0.25000000       0.167
   0.00000000 -0.00000000  0.50000000       0.083
   0.33333333  0.00000000  0.50000000       0.167
 
 position of ions in fractional coordinates (direct lattice) 
   0.88908267  0.95283918  0.11530631
   0.75239901  0.94715970  0.39699460
   0.89564444  0.79496453  0.85998526
   0.61061864  0.45284657  0.61533999
   0.74170620  0.30006362  0.07813818
   0.24662769  0.80121649  0.07957427
   0.74734597  0.44715209  0.89696967
   0.60417524  0.29495604  0.35998697
   0.25869711  0.44830905  0.39793760
   0.10989602  0.79552124  0.36122398
   0.24112647  0.94829863  0.89798272
   0.25323056  0.30118233  0.57938621
   0.75795241  0.80009061  0.57830285
   0.10342704  0.95339282  0.61625368
   0.38987258  0.29549487  0.86111804
   0.39637864  0.45339456  0.11617248
   0.67987080  0.02816593  0.09788927
   0.81963197  0.04546262  0.43514913
   0.83061566  0.70189129  0.54095426
   0.68017229  0.54547448  0.93523783
   0.66914937  0.20187062  0.04089008
   0.31930920  0.72020476  0.37858078
   0.81984214  0.52819341  0.59796039
   0.80961067  0.21906501  0.37783316
   0.19097802  0.52924897  0.09786236
   0.17996635  0.70289356  0.04103202
   0.16862748  0.04647784  0.93495543
   0.31980656  0.20285848  0.54088560
   0.69012981  0.71908950  0.87787714
   0.30889171  0.02922337  0.59788117
   0.18035046  0.22016809  0.87834272
   0.33114609  0.54648986  0.43495913
   0.68173390  0.07273454  0.08447372
   0.81021091  0.08985533  0.42067987
   0.82164848  0.65747592  0.55546640
   0.68957511  0.58987563  0.92082985
   0.67808120  0.15745185  0.05536588
   0.31774880  0.67562341  0.39170620
   0.81801677  0.57276515  0.58461962
   0.80683444  0.17452671  0.39146035
   0.19321174  0.57380008  0.08447155
   0.18943582  0.65849054  0.05543944
   0.17798026  0.09088357  0.92060571
   0.31035114  0.15845305  0.55529392
   0.69287463  0.67455386  0.89154411
   0.30662723  0.07376987  0.58444037
   0.18196013  0.17558853  0.89152562
   0.32176193  0.59090302  0.42067691
   0.62034550  0.08557613  0.91266277
   0.87093486  0.11952028  0.57738892
   0.88261643  0.62780261  0.39890953
   0.62879345  0.61954353  0.07749673
   0.61713921  0.12777605  0.89879627
   0.37917019  0.66279157  0.56350619
   0.87942763  0.58560345  0.41280103
   0.86801093  0.16169809  0.56339609
   0.13201971  0.58662517  0.91254591
   0.12883493  0.62881409  0.89866452
   0.11716875  0.12057305  0.07719378
   0.37095951  0.12876970  0.39854271
   0.63170314  0.66172158  0.06347905
   0.36780447  0.08658339  0.41249085
   0.12050304  0.16276498  0.06332778
   0.38254215  0.62059463  0.57729450
   0.78728564  0.97444507  0.26405826
   0.79512777  0.77293073  0.71105098
   0.71247503  0.47445068  0.76405858
   0.70463454  0.27291050  0.21100625
   0.21173157  0.77391956  0.21247187
   0.29584495  0.47544615  0.26503855
   0.20398977  0.97543426  0.76512337
   0.28806418  0.27388740  0.71234873
   0.74486114  0.10226998  0.24552257
   0.75615126  0.64504110  0.73054761
   0.75490897  0.60230057  0.74567667
   0.74359361  0.14501305  0.23042547
   0.25479969  0.64607801  0.23059373
   0.25619259  0.60333333  0.24564093
   0.24357734  0.10330134  0.74555478
   0.24495613  0.14604324  0.73044765
   0.05564805  0.87431106  0.98848252
   0.94339175  0.87406795  0.48802834
   0.44414939  0.37429638  0.48841444
   0.55629137  0.37405379  0.98797994
   0.42028115  0.13898661  0.26489655
   0.92330729  0.56204630  0.28921213
   0.91206612  0.18523563  0.68693379
   0.57643577  0.06202572  0.78907068
   0.58761373  0.68525367  0.18700589
   0.57944823  0.60930689  0.21107185
   0.07948677  0.63903703  0.76505421
   0.06762842  0.11035961  0.21075322
   0.93210500  0.63803185  0.26535735
   0.07675765  0.18633445  0.18693104
   0.08821334  0.56307126  0.78890520
   0.42290149  0.68634989  0.68717179
   0.43210032  0.61037168  0.71081544
   0.56761965  0.13800495  0.76526314
   0.92026749  0.10927975  0.71095594
   0.41164167  0.06302686  0.28888569
   0.81887793  0.45185344  0.03558742
   0.18168992  0.29648602  0.44075360
   0.45114372  0.46371457  0.98660209
   0.05604671  0.78492279  0.49064355
   0.31272269  0.95333634  0.03651922
   0.44365344  0.28493353  0.99063310
   0.94292443  0.96343312  0.98586798
   0.68630691  0.79508827  0.43978770
   0.04858036  0.96375713  0.48681468
   0.55676486  0.46342436  0.48589250
   0.81334130  0.29508550  0.93958567
   0.68098517  0.95190863  0.53569491
   0.54947260  0.28462830  0.48956884
   0.18705669  0.45331705  0.53645798
   0.31813951  0.79648926  0.94096515
   0.95047842  0.78459156  0.98937848
   0.91620276  0.91494416  0.15746465
   0.83179067  0.91103501  0.33087092
   0.91995980  0.83299575  0.81812287
   0.58341987  0.41495710  0.65752692
   0.66477217  0.33652596  0.14455226
   0.16717805  0.83732987  0.14565364
   0.66787962  0.41103797  0.83087829
   0.57979578  0.33297674  0.31803418
   0.33566856  0.41184165  0.33171925
   0.08273820  0.83341406  0.31903421
   0.16417586  0.91182611  0.83172070
   0.33270099  0.33729346  0.64550352
   0.83488713  0.83655642  0.64471810
   0.07911477  0.91537545  0.65828503
   0.41710767  0.33338138  0.81889296
   0.42071884  0.41538421  0.15826920
   0.75153262  0.01715591  0.27327847
   0.76140416  0.73013366  0.70234624
   0.74826607  0.51716473  0.77335040
   0.73835033  0.23011442  0.20231464
   0.24763405  0.73121685  0.20322273
   0.26199592  0.51822815  0.27358435
   0.23782525  0.01821618  0.77363351
   0.25210758  0.23118556  0.70305894
   0.62039322  0.00183390  0.96428125
   0.88479002  0.03353568  0.58031337
   0.89600978  0.71390735  0.39618826
   0.61503266  0.53354927  0.08041122
   0.60379774  0.21389259  0.89611821
   0.37850556  0.74651938  0.51249029
   0.87921971  0.50187977  0.46419194
   0.86973446  0.24531801  0.51130454
   0.13145740  0.50296269  0.96403160
   0.11512069  0.71482622  0.89569964
   0.10295714  0.03448337  0.07959814
   0.38469929  0.21479233  0.39558658
   0.63001792  0.74535298  0.01130837
   0.36842621  0.00292354  0.46413299
   0.12105313  0.24647197  0.01221332
   0.39682516  0.53449345  0.57958167
 
 position of ions in cartesian coordinates  (Angst):
   7.34410643 31.07048966 -1.89838091
   6.21491771 30.70908527 -0.01011944
   7.39802499 25.44567780  3.49326499
   5.04370972 14.41663187  2.82388920
   6.12679421  9.75830904 -0.31957665
   2.03714206 26.13734784 -1.71209190
   6.17303128 14.05468094  4.71193532
   4.99060624  9.41549657  1.56815159
   2.13675258 14.40414221  1.39129217
   0.90755684 25.77545183  0.17595725
   1.99134923 30.43378105  3.31662030
   2.09153929  9.48217374  3.00895840
   6.26073467 25.78908437  1.60645785
   0.85399788 30.77617394  1.42959245
   3.22015611  9.12038874  4.89766379
   3.27418436 14.74618093 -0.49581808
   5.61602644  0.85925043  0.57223365
   6.77038369  1.21402311  2.76575593
   6.86099565 22.60280798  1.63291167
   5.61811645 17.24440395  4.69125250
   5.52746534  6.57222542 -0.29254275
   2.63741505 23.30289053  0.50210759
   6.77199789 16.89005827  2.49770481
   6.68760608  6.92385222  1.89916024
   1.57747220 17.23691783 -0.82980810
   1.48651341 22.94782363 -1.69329425
   1.39256067  0.93546054  6.08491835
   2.64151709  6.29254848  3.02809982
   5.70037385 22.95466699  3.82433390
   2.55135180  0.58185680  3.89264719
   1.48940128  6.64771499  5.22276213
   2.73519067 17.58996850  1.36278633
   5.63141693  2.32431154  0.35839155
   6.69256183  2.67399659  2.54539614
   6.78692153 21.14207312  1.85361098
   5.69578919 18.70460892  4.47128554
   5.60124590  5.11139635 -0.07206685
   2.62452514 21.83759386  0.71405697
   6.75691974 18.35517620  2.28434923
   6.66467261  5.45964989  2.11432399
   1.59592411 18.70139154 -1.04343668
   1.56473520 21.48755163 -1.47331664
   1.46981996  2.39577840  5.86532583
   2.56340985  4.83220351  3.24808101
   5.72304703 21.49052515  4.03975725
   2.53264645  2.04621271  3.67869703
   1.50269773  5.18243990  5.43509009
   2.65767357 19.05049374  1.14361265
   5.12397980  2.22711717  5.82758730
   7.19410452  3.54573739  3.50412473
   7.29061409 20.26992303  0.89597622
   5.19404234 20.20068444 -1.21754238
   5.09749498  3.61504303  5.61737088
   3.13182781 21.31094250  1.89197024
   7.26427226 18.88200883  1.10635365
   7.16995229  4.93301918  3.29313053
   1.09010920 18.60372974  4.42504297
   1.06380206 19.99130503  4.21475831
   0.96782659  3.89260877  0.17591365
   3.06413226  3.95984686  2.28918232
   5.21807870 21.58798754 -1.42869962
   3.03806923  2.57231720  2.49990032
   0.99537022  5.28027082 -0.03427396
   3.15968116 19.92316286  2.10165872
   6.50314946 31.68384817 -0.97008069
   6.56777067 24.81851587  2.56485193
   5.88503100 15.02988406  3.75207114
   5.82051295  8.78791159  0.63955985
   1.74883193 25.16223109 -0.75235579
   2.44366313 15.37403511  0.43199465
   1.68463265 31.40362598  2.35755483
   2.37923133  8.50705827  3.96915415
   6.15281021  3.18910949  1.34633112
   6.24581226 20.62639298  3.05216335
   6.23554903 19.22001125  3.27228231
   6.14234100  4.59555496  1.12641629
   2.10460328 20.97250995 -0.27427759
   2.11610816 19.56604277 -0.05468987
   2.01175411  2.91088254  4.66702249
   2.02314487  4.31729550  4.44704551
   0.45917733 27.95913384  4.12505927
   7.79258370 28.26325657  0.79954504
   3.66865198 11.92856360  2.19982815
   4.59479700 11.60878215  5.52127737
   3.47160666  4.37717959  1.37225348
   7.62679304 18.18918858  0.35074748
   7.53381694  5.62520039  4.04849368
   4.76131671  1.53454915  5.07189869
   4.85382530 22.28002759 -0.67343604
   4.78637318 19.78275125 -0.30103063
   0.65621507 20.40884579  3.29800325
   0.55854576  3.47544369  1.09225620
   7.69946743 20.68760018 -0.02036227
   0.63395864  5.97348463  0.72139323
   0.72829986 17.91107745  3.66904094
   3.49301696 22.00372340  2.64812532
   3.56900296 19.50567742  3.01781985
   4.68849207  4.03273049  4.70111208
   7.60156335  3.12764859  4.42064126
   3.40023921  1.87952736  1.74418437
   6.76427071 14.74596682 -1.02696869
   1.50063515  9.41523351  2.10054032
   3.72621557 14.54016639  5.26126902
   0.46268337 25.34828863  1.06585604
   2.58311952 31.13611084 -2.42376462
   3.66436114  8.69434234  5.78814563
   7.78851047 30.87334621  3.85881731
   5.66896437 25.71206832  0.69967659
   0.40098862 31.19573362  0.54016682
   4.59890231 14.84317387  1.93381049
   6.71818559  9.05788807  5.42060446
   5.62494703 30.77775152  0.89853232
   4.53868374  8.99708017  2.45837165
   1.54491029 14.48138842  2.29802310
   2.62751513 25.44516264  4.02701100
   7.85092935 25.02586376  4.38241056
   7.56811897 29.80559908 -1.51213278
   6.87076319 29.56962525 -0.34857119
   7.59889460 26.71481791  3.10862802
   4.81902165 13.15192328  3.21028561
   5.49124974 10.90862273  0.01986218
   1.38081763 27.27646580 -1.37390309
   5.51663088 12.91560001  4.37359183
   4.78923244 10.68436564  1.18291956
   2.77260608 13.25354108  1.05316854
   0.68323255 27.04029030 -0.21049370
   1.35573029 29.28309152  2.97814635
   2.74797340 10.62114068  3.34748256
   6.89622239 26.93945869  1.94596919
   0.65315372 29.50738117  1.81531383
   3.44514421 10.38502449  4.51102209
   3.47523370 13.47756041 -0.10965826
   6.20791847  0.38989967  1.76891422
   6.28920545 23.42517373  2.62668510
   6.18067398 16.42014573  3.69437365
   6.09903055  7.39457075  0.70151017
   2.04541284 23.77228926 -0.69437164
   2.16404499 16.76700676  0.36911440
   1.96423745  0.11242065  5.09166457
   2.08222073  7.11719447  4.02683090
   5.12436265 -0.54214697  6.40494940
   7.30856373  0.73357150  3.76408648
   7.40124105 23.08587949  0.63704221
   5.08038011 17.38821872 -0.95763321
   4.98727903  6.43136717  5.35867811
   3.12634873 24.07935942  1.31865363
   7.26254348 16.11349304  1.68215104
   7.18420103  7.69858048  2.71296679
   1.08545289 15.83715495  5.00129899
   0.95050696 22.80439584  3.95445087
   0.85044060  1.07734275  0.43269863
   3.17762089  6.77326588  2.02891700
   5.20416949 24.35397480 -2.00942313
   3.04319379 -0.19426971  3.07718955
   0.99992541  8.04806865 -0.60818688
   3.27767485 17.10758456  2.35771061
 


--------------------------------------------------------------------------------------------------------


 k-point  1 :   0.0000 0.0000 0.0000  plane waves:   59485
 k-point  2 :   0.3333-0.0000 0.0000  plane waves:   59389
 k-point  3 :   0.0000-0.0000 0.2500  plane waves:   59404
 k-point  4 :   0.3333-0.0000 0.2500  plane waves:   59404
 k-point  5 :  -0.3333 0.0000 0.2500  plane waves:   59400
 k-point  6 :   0.0000-0.0000 0.5000  plane waves:   59454
 k-point  7 :   0.3333 0.0000 0.5000  plane waves:   59395

 maximum and minimum number of plane-waves per node :     14899    14789

 maximum number of plane-waves:     59485
 maximum index in each direction: 
   IXMAX=   16   IYMAX=   65   IZMAX=   13
   IXMIN=  -16   IYMIN=  -65   IZMIN=  -13


 real space projection operators:
  total allocation   :      11421.34 KBytes
  max/ min on nodes  :       2926.06       2784.42


 parallel 3D FFT for wavefunctions:
    minimum data exchange during FFTs selected (reduces bandwidth)
 parallel 3D FFT for charge:
    minimum data exchange during FFTs selected (reduces bandwidth)


 total amount of memory used by VASP MPI-rank0    76932. kBytes
=======================================================================

   base      :      30000. kBytes
   nonlr-proj:       9205. kBytes
   fftplans  :       4242. kBytes
   grid      :      11801. kBytes
   one-center:       1213. kBytes
   wavefun   :      20471. kBytes
 
     INWAV:  cpu time    0.0002: real time    0.0001
 Broyden mixing: mesh for mixing (old mesh)
   NGX = 33   NGY =131   NGZ = 27
  (NGX  =100   NGY  =400   NGZ  = 80)
  gives a total of 116721 points

 initial charge density was supplied:
 charge density of overlapping atoms calculated
 number of electron     604.0000000 magnetization      -0.0000000
 keeping initial charge density in first step


--------------------------------------------------------------------------------------------------------


 Maximum index for non-local projection operator          609
 Maximum index for augmentation-charges          414 (set IRDMAX)


--------------------------------------------------------------------------------------------------------


 First call to EWALD:  gamma=   0.146
 Maximum number of real-space cells 4x 1x 5
 Maximum number of reciprocal cells 2x 7x 2

    FEWALD:  cpu time    0.0174: real time    0.0174


--------------------------------------- Iteration      1(   1)  ---------------------------------------


    POTLOK:  cpu time    0.2121: real time    0.2517
    SETDIJ:  cpu time    0.0568: real time    0.0582
     EDDAV:  cpu time   24.3356: real time   24.4172
       DOS:  cpu time    0.0086: real time    0.0095
    --------------------------------------------
      LOOP:  cpu time   24.6133: real time   24.7367

 eigenvalue-minimisations  : 10752
 total energy-change (2. order) : 0.4541719E+04  (-0.3169318E+05)
 number of electron     604.0000000 magnetization      -0.0000000
 augmentation part      604.0000000 magnetization      -0.0000000

 Free energy of the ion-electron system (eV)
  ---------------------------------------------------
  alpha Z        PSCENC =       948.92318310
  Ewald energy   TEWEN  =     -8794.95087138
  -Hartree energ DENC   =    -17928.82020051
  -exchange      EXHF   =         0.00000000
  -V(xc)+E(xc)   XCENC  =      2123.34992561
  PAW double counting   =     22087.95224925   -22402.63741193
  entropy T*S    EENTRO =        -0.02676725
  eigenvalues    EBANDS =      -183.88179988
  atomic energy  EATOM  =     28691.81066055
  Solvation  Ediel_sol  =         0.00000000
  ---------------------------------------------------
  free energy    TOTEN  =      4541.71896755 eV

  energy without entropy =     4541.74573480  energy(sigma->0) =     4541.73235118


--------------------------------------------------------------------------------------------------------




--------------------------------------- Iteration      1(   2)  ---------------------------------------


     EDDAV:  cpu time   30.2258: real time   30.2443
       DOS:  cpu time    0.0041: real time    0.0041
    --------------------------------------------
      LOOP:  cpu time   30.2299: real time   30.2484

 eigenvalue-minimisations  : 13376
 total energy-change (2. order) :-0.5312310E+04  (-0.5135448E+04)
 number of electron     604.0000000 magnetization      -0.0000000
 augmentation part      604.0000000 magnetization      -0.0000000

 Free energy of the ion-electron system (eV)
  ---------------------------------------------------
  alpha Z        PSCENC =       948.92318310
  Ewald energy   TEWEN  =     -8794.95087138
  -Hartree energ DENC   =    -17928.82020051
  -exchange      EXHF   =         0.00000000
  -V(xc)+E(xc)   XCENC  =      2123.34992561
  PAW double counting   =     22087.95224925   -22402.63741193
  entropy T*S    EENTRO =        -0.00577033
  eigenvalues    EBANDS =     -5496.21235553
  atomic energy  EATOM  =     28691.81066055
  Solvation  Ediel_sol  =         0.00000000
  ---------------------------------------------------
  free energy    TOTEN  =      -770.59059118 eV

  energy without entropy =     -770.58482085  energy(sigma->0) =     -770.58770601


--------------------------------------------------------------------------------------------------------




--------------------------------------- Iteration      1(   3)  ---------------------------------------


     EDDAV:  cpu time   29.9540: real time   29.9618
       DOS:  cpu time    0.0045: real time    0.0044
    --------------------------------------------
      LOOP:  cpu time   29.9585: real time   29.9662

 eigenvalue-minimisations  : 13184
 total energy-change (2. order) :-0.5067766E+03  (-0.5010712E+03)
 number of electron     604.0000000 magnetization      -0.0000000
 augmentation part      604.0000000 magnetization      -0.0000000

 Free energy of the ion-electron system (eV)
  ---------------------------------------------------
  alpha Z        PSCENC =       948.92318310
  Ewald energy   TEWEN  =     -8794.95087138
  -Hartree energ DENC   =    -17928.82020051
  -exchange      EXHF   =         0.00000000
  -V(xc)+E(xc)   XCENC  =      2123.34992561
  PAW double counting   =     22087.95224925   -22402.63741193
  entropy T*S    EENTRO =        -0.06277038
  eigenvalues    EBANDS =     -6002.93197588
  atomic energy  EATOM  =     28691.81066055
  Solvation  Ediel_sol  =         0.00000000
  ---------------------------------------------------
  free energy    TOTEN  =     -1277.36721158 eV

  energy without entropy =    -1277.30444120  energy(sigma->0) =    -1277.33582639


--------------------------------------------------------------------------------------------------------




--------------------------------------- Iteration      1(   4)  ---------------------------------------


     EDDAV:  cpu time   30.4836: real time   30.4909
       DOS:  cpu time    0.0041: real time    0.0041
    --------------------------------------------
      LOOP:  cpu time   30.4878: real time   30.4951

 eigenvalue-minimisations  : 13376
 total energy-change (2. order) :-0.1439089E+02  (-0.1426527E+02)
 number of electron     604.0000000 magnetization      -0.0000000
 augmentation part      604.0000000 magnetization      -0.0000000

 Free energy of the ion-electron system (eV)
  ---------------------------------------------------
  alpha Z        PSCENC =       948.92318310
  Ewald energy   TEWEN  =     -8794.95087138
  -Hartree energ DENC   =    -17928.82020051
  -exchange      EXHF   =         0.00000000
  -V(xc)+E(xc)   XCENC  =      2123.34992561
  PAW double counting   =     22087.95224925   -22402.63741193
  entropy T*S    EENTRO =        -0.04870407
  eigenvalues    EBANDS =     -6017.33693213
  atomic energy  EATOM  =     28691.81066055
  Solvation  Ediel_sol  =         0.00000000
  ---------------------------------------------------
  free energy    TOTEN  =     -1291.75810153 eV

  energy without entropy =    -1291.70939745  energy(sigma->0) =    -1291.73374949


--------------------------------------------------------------------------------------------------------




--------------------------------------- Iteration      1(   5)  ---------------------------------------


     EDDAV:  cpu time   32.7235: real time   32.7304
       DOS:  cpu time    0.0045: real time    0.0045
    CHARGE:  cpu time    0.4837: real time    0.4846
    MIXING:  cpu time    0.0124: real time    0.0152
    --------------------------------------------
      LOOP:  cpu time   33.2243: real time   33.2348

 eigenvalue-minimisations  : 14400
 total energy-change (2. order) :-0.5604961E+00  (-0.5601461E+00)
 number of electron     604.0000044 magnetization      -0.0000850
 augmentation part       35.9387119 magnetization      -0.0001018

 Broyden mixing:
  rms(total) = 0.90733E+01    rms(broyden)= 0.90728E+01
  rms(prec ) = 0.96775E+01
  weight for this iteration     100.00

 Free energy of the ion-electron system (eV)
  ---------------------------------------------------
  alpha Z        PSCENC =       948.92318310
  Ewald energy   TEWEN  =     -8794.95087138
  -Hartree energ DENC   =    -17928.82020051
  -exchange      EXHF   =         0.00000000
  -V(xc)+E(xc)   XCENC  =      2123.34992561
  PAW double counting   =     22087.95224925   -22402.63741193
  entropy T*S    EENTRO =        -0.04838408
  eigenvalues    EBANDS =     -6017.89774821
  atomic energy  EATOM  =     28691.81066055
  Solvation  Ediel_sol  =         0.00000000
  ---------------------------------------------------
  free energy    TOTEN  =     -1292.31859760 eV

  energy without entropy =    -1292.27021353  energy(sigma->0) =    -1292.29440557


--------------------------------------------------------------------------------------------------------




--------------------------------------- Iteration      1(   6)  ---------------------------------------


    POTLOK:  cpu time    0.1941: real time    0.2118
    SETDIJ:  cpu time    0.0563: real time    0.0563
     EDDAV:  cpu time   43.7002: real time   43.7149
       DOS:  cpu time    0.0045: real time    0.0045
    CHARGE:  cpu time    0.4652: real time    0.4655
    MIXING:  cpu time    0.0057: real time    0.0062
    --------------------------------------------
      LOOP:  cpu time   44.4260: real time   44.4592

 eigenvalue-minimisations  : 18176
 total energy-change (2. order) :-0.2929635E+03  (-0.3562640E+03)
 number of electron     604.0000031 magnetization       0.0008083
 augmentation part       55.9478623 magnetization      -0.1113229

 Broyden mixing:
  rms(total) = 0.24562E+02    rms(broyden)= 0.24562E+02
  rms(prec ) = 0.24916E+02
  weight for this iteration     100.00

 eigenvalues of (default mixing * dielectric matrix)
  average eigenvalue GAMMA=   0.0990
  0.0990

 Free energy of the ion-electron system (eV)
  ---------------------------------------------------
  alpha Z        PSCENC =       948.92318310
  Ewald energy   TEWEN  =     -8794.95087138
  -Hartree energ DENC   =    -18443.14027356
  -exchange      EXHF   =         0.00000000
  -V(xc)+E(xc)   XCENC  =      2157.14420666
  PAW double counting   =     32815.95905767   -33033.13751353
  entropy T*S    EENTRO =        -0.03215617
  eigenvalues    EBANDS =     -5927.85839640
  atomic energy  EATOM  =     28691.81066055
  Solvation  Ediel_sol  =         0.00000000
  ---------------------------------------------------
  free energy    TOTEN  =     -1585.28210308 eV

  energy without entropy =    -1585.24994691  energy(sigma->0) =    -1585.26602499


--------------------------------------------------------------------------------------------------------




--------------------------------------- Iteration      1(   7)  ---------------------------------------


    POTLOK:  cpu time    0.1701: real time    0.1701
    SETDIJ:  cpu time    0.0526: real time    0.0526
     EDDAV:  cpu time   29.3283: real time   29.3369
       DOS:  cpu time    0.0062: real time    0.0081
    CHARGE:  cpu time    0.4598: real time    0.4600
    MIXING:  cpu time    0.0043: real time    0.0056
    --------------------------------------------
      LOOP:  cpu time   30.0214: real time   30.0334

 eigenvalue-minimisations  : 13312
 total energy-change (2. order) : 0.1184309E+03  (-0.2762241E+02)
 number of electron     604.0000035 magnetization      -0.0040946
 augmentation part       55.5693915 magnetization      -0.0132921

 Broyden mixing:
  rms(total) = 0.16222E+02    rms(broyden)= 0.16222E+02
  rms(prec ) = 0.16551E+02
  weight for this iteration     100.00

 eigenvalues of (default mixing * dielectric matrix)
  average eigenvalue GAMMA=   0.4519
  0.4519  0.4519

 Free energy of the ion-electron system (eV)
  ---------------------------------------------------
  alpha Z        PSCENC =       948.92318310
  Ewald energy   TEWEN  =     -8794.95087138
  -Hartree energ DENC   =    -18515.19019289
  -exchange      EXHF   =         0.00000000
  -V(xc)+E(xc)   XCENC  =      2160.47106302
  PAW double counting   =     34413.29648899   -34658.62526961
  entropy T*S    EENTRO =        -0.01447011
  eigenvalues    EBANDS =     -5712.57180997
  atomic energy  EATOM  =     28691.81066055
  Solvation  Ediel_sol  =         0.00000000
  ---------------------------------------------------
  free energy    TOTEN  =     -1466.85121831 eV

  energy without entropy =    -1466.83674820  energy(sigma->0) =    -1466.84398326


--------------------------------------------------------------------------------------------------------




--------------------------------------- Iteration      1(   8)  ---------------------------------------


    POTLOK:  cpu time    0.1703: real time    0.1719
    SETDIJ:  cpu time    0.0507: real time    0.0506
     EDDAV:  cpu time   34.9997: real time   35.0101
       DOS:  cpu time    0.0042: real time    0.0042
    CHARGE:  cpu time    0.4587: real time    0.4591
    MIXING:  cpu time    0.0038: real time    0.0038
    --------------------------------------------
      LOOP:  cpu time   35.6874: real time   35.6996

 eigenvalue-minimisations  : 15616
 total energy-change (2. order) : 0.2788496E+03  (-0.2458621E+02)
 number of electron     604.0000040 magnetization      -0.0046559
 augmentation part       52.6040514 magnetization       0.0031001

 Broyden mixing:
  rms(total) = 0.58946E+01    rms(broyden)= 0.58945E+01
  rms(prec ) = 0.64699E+01
  weight for this iteration     100.00

 eigenvalues of (default mixing * dielectric matrix)
  average eigenvalue GAMMA=   0.5324
  0.6062  0.6062  0.3849

 Free energy of the ion-electron system (eV)
  ---------------------------------------------------
  alpha Z        PSCENC =       948.92318310
  Ewald energy   TEWEN  =     -8794.95087138
  -Hartree energ DENC   =    -18760.34989289
  -exchange      EXHF   =         0.00000000
  -V(xc)+E(xc)   XCENC  =      2178.07434078
  PAW double counting   =     38751.08400727   -39078.74028923
  entropy T*S    EENTRO =        -0.07523789
  eigenvalues    EBANDS =     -5123.77755282
  atomic energy  EATOM  =     28691.81066055
  Solvation  Ediel_sol  =         0.00000000
  ---------------------------------------------------
  free energy    TOTEN  =     -1188.00165251 eV

  energy without entropy =    -1187.92641462  energy(sigma->0) =    -1187.96403357


--------------------------------------------------------------------------------------------------------




--------------------------------------- Iteration      1(   9)  ---------------------------------------


    POTLOK:  cpu time    0.1701: real time    0.1701
    SETDIJ:  cpu time    0.0510: real time    0.0510
     EDDAV:  cpu time   36.8298: real time   36.8406
       DOS:  cpu time    0.0044: real time    0.0044
    CHARGE:  cpu time    0.5332: real time    0.5332
    MIXING:  cpu time    0.0037: real time    0.0037
    --------------------------------------------
      LOOP:  cpu time   37.5922: real time   37.6030

 eigenvalue-minimisations  : 16128
 total energy-change (2. order) :-0.2231994E+01  (-0.7160063E+02)
 number of electron     604.0000048 magnetization      -0.0149554
 augmentation part       33.6205675 magnetization       0.1969108

 Broyden mixing:
  rms(total) = 0.70559E+01    rms(broyden)= 0.70556E+01
  rms(prec ) = 0.80556E+01
  weight for this iteration     100.00

 eigenvalues of (default mixing * dielectric matrix)
  average eigenvalue GAMMA=   0.5872
  1.1643  0.4471  0.4471  0.2905

 Free energy of the ion-electron system (eV)
  ---------------------------------------------------
  alpha Z        PSCENC =       948.92318310
  Ewald energy   TEWEN  =     -8794.95087138
  -Hartree energ DENC   =    -18903.93657408
  -exchange      EXHF   =         0.00000000
  -V(xc)+E(xc)   XCENC  =      2186.34662399
  PAW double counting   =     41677.18817740   -42033.34492954
  entropy T*S    EENTRO =        -0.05257663
  eigenvalues    EBANDS =     -4962.21733987
  atomic energy  EATOM  =     28691.81066055
  Solvation  Ediel_sol  =         0.00000000
  ---------------------------------------------------
  free energy    TOTEN  =     -1190.23364647 eV

  energy without entropy =    -1190.18106984  energy(sigma->0) =    -1190.20735816


--------------------------------------------------------------------------------------------------------




--------------------------------------- Iteration      1(  10)  ---------------------------------------


    POTLOK:  cpu time    0.1699: real time    0.1699
    SETDIJ:  cpu time    0.0503: real time    0.0503
     EDDAV:  cpu time   34.0368: real time   34.0448
       DOS:  cpu time    0.0048: real time    0.0048
    CHARGE:  cpu time    0.4958: real time    0.4961
    MIXING:  cpu time    0.0560: real time    0.0560
    --------------------------------------------
      LOOP:  cpu time   34.8136: real time   34.8220

 eigenvalue-minimisations  : 15104
 total energy-change (2. order) : 0.1841149E+02  (-0.8784013E+02)
 number of electron     604.0000046 magnetization      -0.0480849
 augmentation part       42.4009205 magnetization       1.3312460

 Broyden mixing:
  rms(total) = 0.55947E+01    rms(broyden)= 0.55945E+01
  rms(prec ) = 0.64562E+01
  weight for this iteration     100.00

 eigenvalues of (default mixing * dielectric matrix)
  average eigenvalue GAMMA=   0.5097
  1.2224  0.4472  0.4472  0.2963  0.1353

 Free energy of the ion-electron system (eV)
  ---------------------------------------------------
  alpha Z        PSCENC =       948.92318310
  Ewald energy   TEWEN  =     -8794.95087138
  -Hartree energ DENC   =    -19059.70889022
  -exchange      EXHF   =         0.00000000
  -V(xc)+E(xc)   XCENC  =      2195.25590999
  PAW double counting   =     48268.16508639   -48620.25509927
  entropy T*S    EENTRO =        -0.01249951
  eigenvalues    EBANDS =     -4801.04963653
  atomic energy  EATOM  =     28691.81066055
  Solvation  Ediel_sol  =         0.00000000
  ---------------------------------------------------
  free energy    TOTEN  =     -1171.82215689 eV

  energy without entropy =    -1171.80965738  energy(sigma->0) =    -1171.81590714


--------------------------------------------------------------------------------------------------------




--------------------------------------- Iteration      1(  11)  ---------------------------------------


    POTLOK:  cpu time    0.1709: real time    0.1709
    SETDIJ:  cpu time    0.0524: real time    0.0541
     EDDAV:  cpu time   35.3846: real time   35.3940
       DOS:  cpu time    0.0041: real time    0.0042
    CHARGE:  cpu time    0.4607: real time    0.4607
    MIXING:  cpu time    0.0040: real time    0.0039
    --------------------------------------------
      LOOP:  cpu time   36.0767: real time   36.0878

 eigenvalue-minimisations  : 15680
 total energy-change (2. order) : 0.3915873E+01  (-0.4653174E+02)
 number of electron     604.0000048 magnetization      -0.0347783
 augmentation part       42.5505492 magnetization      -1.4536986

 Broyden mixing:
  rms(total) = 0.55468E+01    rms(broyden)= 0.55468E+01
  rms(prec ) = 0.63878E+01
  weight for this iteration     100.00

 eigenvalues of (default mixing * dielectric matrix)
  average eigenvalue GAMMA=   0.5949
  1.6682  0.6121  0.4687  0.4687  0.2853  0.0666

 Free energy of the ion-electron system (eV)
  ---------------------------------------------------
  alpha Z        PSCENC =       948.92318310
  Ewald energy   TEWEN  =     -8794.95087138
  -Hartree energ DENC   =    -19087.78259214
  -exchange      EXHF   =         0.00000000
  -V(xc)+E(xc)   XCENC  =      2197.16604865
  PAW double counting   =     49407.41884680   -49758.33092556
  entropy T*S    EENTRO =        -0.00636658
  eigenvalues    EBANDS =     -4772.15426719
  atomic energy  EATOM  =     28691.81066055
  Solvation  Ediel_sol  =         0.00000000
  ---------------------------------------------------
  free energy    TOTEN  =     -1167.90628376 eV

  energy without entropy =    -1167.89991718  energy(sigma->0) =    -1167.90310047


--------------------------------------------------------------------------------------------------------




--------------------------------------- Iteration      1(  12)  ---------------------------------------


    POTLOK:  cpu time    0.1701: real time    0.1701
    SETDIJ:  cpu time    0.0510: real time    0.0510
     EDDAV:  cpu time   34.2309: real time   34.2418
       DOS:  cpu time    0.0040: real time    0.0084
    CHARGE:  cpu time    0.5089: real time    0.5090
    MIXING:  cpu time    0.0040: real time    0.0040
    --------------------------------------------
      LOOP:  cpu time   34.9689: real time   34.9842

 eigenvalue-minimisations  : 14912
 total energy-change (2. order) : 0.1353316E+02  (-0.2438622E+02)
 number of electron     604.0000044 magnetization      -0.0371601
 augmentation part       48.5624359 magnetization       0.1170340

 Broyden mixing:
  rms(total) = 0.31506E+01    rms(broyden)= 0.31504E+01
  rms(prec ) = 0.35296E+01
  weight for this iteration     100.00

 eigenvalues of (default mixing * dielectric matrix)
  average eigenvalue GAMMA=   0.5337
  1.6442  0.6652  0.4687  0.4687  0.2831  0.1387  0.0670

 Free energy of the ion-electron system (eV)
  ---------------------------------------------------
  alpha Z        PSCENC =       948.92318310
  Ewald energy   TEWEN  =     -8794.95087138
  -Hartree energ DENC   =    -19185.14015258
  -exchange      EXHF   =         0.00000000
  -V(xc)+E(xc)   XCENC  =      2202.80553448
  PAW double counting   =     53537.16081549   -53883.72516023
  entropy T*S    EENTRO =        -0.07787103
  eigenvalues    EBANDS =     -4671.17926514
  atomic energy  EATOM  =     28691.81066055
  Solvation  Ediel_sol  =         0.00000000
  ---------------------------------------------------
  free energy    TOTEN  =     -1154.37312676 eV

  energy without entropy =    -1154.29525573  energy(sigma->0) =    -1154.33419125


--------------------------------------------------------------------------------------------------------




--------------------------------------- Iteration      1(  13)  ---------------------------------------


    POTLOK:  cpu time    0.1706: real time    0.1707
    SETDIJ:  cpu time    0.0512: real time    0.0512
     EDDAV:  cpu time   35.2875: real time   35.2986
       DOS:  cpu time    0.0054: real time    0.0055
    CHARGE:  cpu time    0.4596: real time    0.4596
    MIXING:  cpu time    0.0042: real time    0.0042
    --------------------------------------------
      LOOP:  cpu time   35.9786: real time   35.9898

 eigenvalue-minimisations  : 16064
 total energy-change (2. order) :-0.2903552E+00  (-0.8168381E+01)
 number of electron     604.0000038 magnetization      -0.0130042
 augmentation part       47.0026970 magnetization      -1.0016643

 Broyden mixing:
  rms(total) = 0.28174E+01    rms(broyden)= 0.28173E+01
  rms(prec ) = 0.30202E+01
  weight for this iteration     100.00

 eigenvalues of (default mixing * dielectric matrix)
  average eigenvalue GAMMA=   0.5032
  1.5356  0.8282  0.4645  0.4645  0.2850  0.2850  0.0973  0.0656

 Free energy of the ion-electron system (eV)
  ---------------------------------------------------
  alpha Z        PSCENC =       948.92318310
  Ewald energy   TEWEN  =     -8794.95087138
  -Hartree energ DENC   =    -19196.38864114
  -exchange      EXHF   =         0.00000000
  -V(xc)+E(xc)   XCENC  =      2202.67751818
  PAW double counting   =     54073.99075214   -54420.66980784
  entropy T*S    EENTRO =        -0.06307818
  eigenvalues    EBANDS =     -4659.99319742
  atomic energy  EATOM  =     28691.81066055
  Solvation  Ediel_sol  =         0.00000000
  ---------------------------------------------------
  free energy    TOTEN  =     -1154.66348200 eV

  energy without entropy =    -1154.60040382  energy(sigma->0) =    -1154.63194291


--------------------------------------------------------------------------------------------------------




[...]
   80            fft3d_mpi                            20.427055                     4340   5
   81              fftbas_plan_mpi                      20.412082                   4340   6
   82                dfftw_execute                         9.506065                13020   7
   83                map_forward                           8.534966                 8680   7
   84                  map_gather                            2.124339               4340   8
   85                  m_alltoallv_z                         2.316307               4340   8
   86                  map_scatter                           2.551531               4340   8
   87          pw_charge                             2.325902                       4340   4
   88          fft3d_mpi                             0.442615                        124   4
   89            fftbas_plan_mpi                       0.401962                      124   5
   90              dfftw_execute                         0.127452                    372   6
   91              map_backward                          0.206125                    248   6
   92                map_gather                            0.062904                  248   7
   93                m_alltoallv_z                         0.136752                  248   7
   94                map_scatter                           0.003403                  248   7
   95        depsum                                0.161217                           62   3
   96        fft3d_mpi                             0.684309                          124   3
   97          fftbas_plan_mpi                       0.671700                        124   4
   98            dfftw_execute                         0.064960                      372   5
   99            map_backward                          0.509516                      248   5
  100              map_gather                            0.016248                    124   6
  101              m_alltoallv_z                         0.485291                    124   6
  102              map_scatter                           0.005766                    124   6
  103      brmix                                 0.614656                             62   2
  104        brpre                                 0.006060                          124   3
  105        setg0                                 0.038671                           64   3
  106        broyd                                 0.400193                           62   3
  107          brsav                                 0.013631                       2491   4
  108          brget                                 0.034164                       9525   4
  109      force_and_stress                     18.322957                              1   2
  110        set_charge                            0.451399                            1   3
  111          soft_charge                           0.405513                          1   4
  112            fftwav_mpi                            0.351819                       70   5
  113              fft3d_mpi                             0.318638                     70   6
  114                fftbas_plan_mpi                       0.318411                   70   7
  115                  dfftw_execute                         0.153141                210   8
  116                  map_forward                           0.127468                140   8
  117                    map_gather                            0.032349               70   9
  118                    m_alltoallv_z                         0.030109               70   9
  119                    map_scatter                           0.040194               70   9
  120            pw_charge                             0.035867                       70   5
  121            fft3d_mpi                             0.007666                        2   5
  122              fftbas_plan_mpi                       0.007046                      2   6
  123                dfftw_execute                         0.002064                    6   7
  124                map_backward                          0.003692                    4   7
  125                  map_gather                            0.000850                  4   8
  126                  m_alltoallv_z                         0.002734                  4   8
  127                  map_scatter                           0.000050                  4   8
  128          depsum                                0.002513                          1   4
  129          fft3d_mpi                             0.007775                          2   4
  130            fftbas_plan_mpi                       0.007595                        2   5
  131              dfftw_execute                         0.001065                      6   6
  132              map_backward                          0.004956                      4   6
  133                map_gather                            0.000293                    2   7
  134                m_alltoallv_z                         0.004544                    2   7
  135                map_scatter                           0.000087                    2   7
  136        forloc                                0.041171                            1   3
  137        fornlr                                2.077399                            1   3
  138          rspher_all                            0.087045                          3   4
  139          phaser                                0.289215                         21   4
  140          rpro_isp                              1.694311                         21   4
  141            fftwav_mpi                            1.258335                      252   5
  142              fft3d_mpi                             1.135284                    252   6
  143                fftbas_plan_mpi                       1.134344                  252   7
  144                  dfftw_execute                         0.545979                756   8
  145                  map_forward                           0.451067                504   8
  146                    map_gather                            0.112626              252   9
  147                    m_alltoallv_z                         0.109790              252   9
  148                    map_scatter                           0.141899              252   9
  149            rpromu                                0.432438                       84   5
  150              crrexp_mul_wave                       0.205703                  39312   6
  151              rpromu_gemm                           0.146926                  13104   6
  152        fordep                                0.194713                            1   3
  153          setdij_                               0.194003                          6   4
  154        setdij_                               0.635668                           20   3
  155        set_dd_paw                            0.019253                            1   3
  156        strkin                                0.008913                            1   3
  157        strelo                                0.002702                            1   3
  158        strnlr                                6.307007                            1   3
  159          rspher_all                            0.266545                          9   4
  160          phaser                                0.872846                         63   4
  161          rpro_isp                              5.021893                         63   4
  162            fftwav_mpi                            3.725907                      756   5
  163              fft3d_mpi                             3.371447                    756   6
  164                fftbas_plan_mpi                       3.369038                  756   7
  165                  dfftw_execute                         1.624189               2268   8
  166                  map_forward                           1.335053               1512   8
  167                    map_gather                            0.328633              756   9
  168                    m_alltoallv_z                         0.320773              756   9
  169                    map_scatter                           0.424843              756   9
  170            rpromu                                1.278609                      252   5
  171              crrexp_mul_wave                       0.611848                 117936   6
  172              rpromu_gemm                           0.433169                  39312   6
  173        fft3d_mpi                             0.078099                           22   3
  174          fftbas_plan_mpi                       0.075967                         22   4
  175            dfftw_execute                         0.012036                       66   5
  176            map_forward                           0.024903                       20   5
  177              map_gather                            0.000269                     10   6
  178              m_alltoallv_z                         0.022579                     10   6
  179              map_scatter                           0.001899                     10   6
  180            map_backward                          0.022785                       24   5
  181              map_gather                            0.001686                     12   6
  182              m_alltoallv_z                         0.020378                     12   6
  183              map_scatter                           0.000547                     12   6
  184        forhar                                0.072943                            2   3
  185        strehar                               0.002432                            1   3
  186        chggra                                0.015031                            1   3
  187          fft3d_mpi                             0.011767                          3   4
  188            fftbas_plan_mpi                       0.011490                        3   5
  189              dfftw_execute                         0.001646                      9   6
  190              map_forward                           0.005884                      4   6
  191                map_gather                            0.000060                    2   7
  192                m_alltoallv_z                         0.005377                    2   7
  193                map_scatter                           0.000416                    2   7
  194              map_backward                          0.001811                      2   6
  195                map_gather                            0.000213                    1   7
  196                m_alltoallv_z                         0.001536                    1   7
  197                map_scatter                           0.000045                    1   7
  198        brmix                                 0.028298                            1   3
  199          brpre                                 0.000059                          2   4
  200          setg0                                 0.000730                          1   4
  201          broyd                                 0.010181                          1   4
  202            brget                                 0.000898                      219   5
  203            brsav                                 0.000157                       47   5
 
 Flat profile
 ============
 
             routine name                   CPU           calls
 ---------------------------------------------------------------
 eddav                                1468.771497          67
 total_time                            325.494532           1
 redis_pw                              157.491827       58922
 dfftw_execute                         137.359048      193398
 orth1                                  92.066344       62730
 m_alltoallv_z                          49.938428       64720
 redis_proj                             44.896279       74190
 map_scatter                            37.603412       64720
 fftbas_plan_mpi                        36.813796       64468
 map_gather                             32.678159       64720
 crrexp_mul_work_add                    28.926247     3257592
 racc0                                  27.458179       20882
 fftwav_mpi                             27.229902       41638
 map_forward                            18.766320       85102
 rpro1                                  18.431048       15254
 vhamil                                 15.632417       20882
 phaser                                 14.196914        1029
 crrexp_mul_wave                        13.741059     2549976
 lincom                                 11.361820         952
 force_and_stress                        8.387928           1
 w1_copy                                 4.756556       62646
 fftext_mpi                              3.549968       20882
 eccp                                    3.117558        5628
 setdij_                                 3.006279          91
 pw_charge                               2.361769        4410
 set_charge                              2.257610          63
 kinhamil                                2.071874       20882
 set_dd_paw                              1.346837          65
 apply_precond                           1.257915       15254
 overl                                   1.194465       36150
 soft_charge                             1.113653          63
 overl1                                  0.833911       20882
 setup_precond                           0.733744        5628
 rpromu_gemm                             0.653202       56784
 fft3d_mpi                               0.488017       64466
 map_backward                            0.438217       43830
 rspher_all                              0.408983          14
 broyd                                   0.361524          63
 rpromu                                  0.340067         364
 hamiltmu                                0.294602       20882
 choleski                                0.278006          14
 orthch                                  0.189617           1
 brmix                                   0.187059          63
 depsum                                  0.163730          63
 strnlr                                  0.145724           1
 raccmu_                                 0.138531       20882
 w1_projall                              0.095805       15254
 forhar                                  0.072943           2
 forloc                                  0.041171           1
 setg0                                   0.039402          65
 brget                                   0.035062        9744
 rpro_isp                                0.022924          91
 brgrid                                  0.022465           1
 truncate_high_frequency_w1              0.019351       26510
 brsav                                   0.013789        2538
 strkin                                  0.008913           1
 fornlr                                  0.006828           1
 brpre                                   0.006119         126
 chggra                                  0.003264           1
 strelo                                  0.002702           1
 strehar                                 0.002432           1
 fordep                                  0.000710           1
 redis_pw_over_bands                     0.000001           1
 ---------------------------------------------------------------
  summed up times    2599.32845401764     
 
 Accumulative profile
 ====================
 
             routine name                   CPU           calls
 ---------------------------------------------------------------
 total_time                           2599.328454           1
 eddav                                2213.531598          67
 fft3d_mpi                             314.045272       64466
 fftbas_plan_mpi                       313.597380       64468
 fftwav_mpi                            244.599810       41638
 hamiltmu                              168.088123       20882
 redis_pw                              157.491827       58922
 dfftw_execute                         137.359048      193398
 map_forward                           104.215112       85102
 kinhamil                               94.804236       20882
 fftext_mpi                             92.732363       20882
 orth1                                  92.066344       62730
 raccmu_                                57.356868       20882
 racc0                                  56.384426       20882
 m_alltoallv_z                          49.938428       64720
 redis_proj                             44.896279       74190
 map_scatter                            37.603412       64720
 map_backward                           35.209424       43830
 map_gather                             32.678159       64720
 w1_projall                             31.382420       15254
 rpro1                                  31.286614       15254
 set_charge                             29.927489          63
 crrexp_mul_work_add                    28.926247     3257592
 soft_charge                            26.814065          63
 force_and_stress                       18.322957           1
 vhamil                                 15.632417       20882
 phaser                                 14.196914        1029
 crrexp_mul_wave                        13.741059     2549976
 lincom                                 11.361820         952
 rpro_isp                                7.339194          91
 strnlr                                  6.307007           1
 w1_copy                                 4.756556       62646
 eccp                                    3.117558        5628
 setdij_                                 3.006279          91
 pw_charge                               2.361769        4410
 fornlr                                  2.077399           1
 rpromu                                  1.878761         364
 set_dd_paw                              1.346837          65
 orthch                                  1.283675           1
 apply_precond                           1.257915       15254
 overl                                   1.194465       36150
 overl1                                  0.833911       20882
 setup_precond                           0.733744        5628
 rpromu_gemm                             0.653202       56784
 brmix                                   0.642954          63
 broyd                                   0.410374          63
 rspher_all                              0.408983          14
 choleski                                0.278006          14
 fordep                                  0.194713           1
 depsum                                  0.163730          63
 forhar                                  0.072943           2
 forloc                                  0.041171           1
 setg0                                   0.039402          65
 brget                                   0.035062        9744
 brgrid                                  0.022465           1
 truncate_high_frequency_w1              0.019351       26510
 chggra                                  0.015031           1
 brsav                                   0.013789        2538
 strkin                                  0.008913           1
 brpre                                   0.006119         126
 strelo                                  0.002702           1
 strehar                                 0.002432           1
 redis_pw_over_bands                     0.000001           1
 ---------------------------------------------------------------
 
Profiling took   4.039125  2.304118  0.012157  0.011792 seconds
Profiling took   4.635344 seconds
