       N       E                     dE             d eps       ncg     rms          rms(c)
DAV:   1     0.552777273453E+04    0.55278E+04   -0.26858E+05  4608   0.143E+03
DAV:   2    -0.287531984078E+03   -0.58153E+04   -0.56093E+04  6528   0.320E+02
DAV:   3    -0.125770267052E+04   -0.97017E+03   -0.96111E+03  5440   0.138E+02
DAV:   4    -0.129958023512E+04   -0.41878E+02   -0.41503E+02  6816   0.425E+01
DAV:   5    -0.130036515434E+04   -0.78492E+00   -0.78048E+00  5888   0.450E+00
DAV:   6    -0.130041316537E+04   -0.48011E-01   -0.47941E-01  7200   0.138E+00
DAV:   7    -0.130041393745E+04   -0.77208E-03   -0.77046E-03  5920   0.128E-01
DAV:   8    -0.130041397180E+04   -0.34348E-04   -0.34329E-04  7168   0.297E-02    0.949E+01
DAV:   9    -0.162350134435E+04   -0.32309E+03   -0.39282E+03  7424   0.837E+01    0.330E+02
DAV:  10    -0.152596724551E+04    0.97534E+02   -0.27088E+02  5600   0.330E+01    0.211E+02
DAV:  11    -0.117871713843E+04    0.34725E+03   -0.73489E+02  6656   0.900E+01    0.645E+01
DAV:  12    -0.117464847636E+04    0.40687E+01   -0.73169E+02  6656   0.507E+01    0.497E+01
DAV:  13    -0.119061056928E+04   -0.15962E+02   -0.40976E+02  6272   0.200E+01    0.583E+01
DAV:  14    -0.117211473072E+04    0.18496E+02   -0.19551E+02  6624   0.293E+01    0.413E+01
DAV:  15    -0.116943519954E+04    0.26795E+01   -0.88195E+01  6816   0.213E+01    0.443E+01
DAV:  16    -0.117196574737E+04   -0.25305E+01   -0.14547E+02  6816   0.255E+01    0.475E+01
DAV:  17    -0.116523363599E+04    0.67321E+01   -0.12154E+02  6656   0.113E+01    0.247E+01
DAV:  18    -0.116943099527E+04   -0.41974E+01   -0.29475E+01  6336   0.864E+00    0.232E+01
DAV:  19    -0.116914886324E+04    0.28213E+00   -0.33481E+01  6784   0.117E+01    0.218E+01
DAV:  20    -0.117037339825E+04   -0.12245E+01   -0.52008E+00  6400   0.332E+00    0.182E+01
DAV:  21    -0.117097477990E+04   -0.60138E+00   -0.87223E+00  6208   0.295E+00    0.166E+01
DAV:  22    -0.117184681959E+04   -0.87204E+00   -0.70324E-01  5920   0.159E+00    0.153E+01
DAV:  23    -0.117284903252E+04   -0.10022E+01   -0.52143E-01  6240   0.124E+00    0.149E+01
DAV:  24    -0.117342261492E+04   -0.57358E+00   -0.67920E-01  6080   0.152E+00    0.158E+01
DAV:  25    -0.117329077547E+04    0.13184E+00   -0.33445E-01  6304   0.144E+00    0.174E+01
DAV:  26    -0.117458014347E+04   -0.12894E+01   -0.30084E+00  5920   0.301E+00    0.147E+01
DAV:  27    -0.117485693869E+04   -0.27680E+00   -0.45908E-01  6048   0.146E+00    0.133E+01
DAV:  28    -0.117505782948E+04   -0.20089E+00   -0.15665E+00  5888   0.206E+00    0.115E+01
DAV:  29    -0.117490037080E+04    0.15746E+00   -0.13059E+00  6048   0.203E+00    0.913E+00
DAV:  30    -0.117465787532E+04    0.24250E+00   -0.53133E-01  5984   0.148E+00    0.785E+00
DAV:  31    -0.117447788803E+04    0.17999E+00   -0.10139E+00  6304   0.182E+00    0.588E+00
DAV:  32    -0.117450780369E+04   -0.29916E-01   -0.66250E-02  6112   0.642E-01    0.569E+00
DAV:  33    -0.117450610191E+04    0.17018E-02   -0.40267E-03  6016   0.221E-01    0.582E+00
DAV:  34    -0.117424962888E+04    0.25647E+00   -0.21280E-01  5696   0.205E+00    0.400E+00
DAV:  35    -0.117443673212E+04   -0.18710E+00   -0.42445E-01  5824   0.127E+00    0.328E+00
DAV:  36    -0.117448545996E+04   -0.48728E-01   -0.34723E-02  5792   0.455E-01    0.323E+00
DAV:  37    -0.117450081815E+04   -0.15358E-01   -0.17113E-03  6336   0.876E-02    0.322E+00
DAV:  38    -0.117454571147E+04   -0.44893E-01   -0.41715E-02  5824   0.648E-01    0.251E+00
DAV:  39    -0.117464320639E+04   -0.97495E-01   -0.11749E-01  5888   0.874E-01    0.153E+00
DAV:  40    -0.117470742634E+04   -0.64220E-01   -0.65397E-02  6368   0.701E-01    0.151E+00
DAV:  41    -0.117467806007E+04    0.29366E-01   -0.25133E-02  5664   0.426E-01    0.103E+00
DAV:  42    -0.117469727265E+04   -0.19213E-01   -0.16999E-02  6080   0.282E-01    0.711E-01
DAV:  43    -0.117474171257E+04   -0.44440E-01   -0.91215E-03  6208   0.256E-01    0.473E-01
DAV:  44    -0.117478383088E+04   -0.42118E-01   -0.74189E-03  5760   0.168E-01    0.387E-01
DAV:  45    -0.117480982754E+04   -0.25997E-01   -0.28141E-03  6048   0.116E-01    0.330E-01
DAV:  46    -0.117483016030E+04   -0.20333E-01   -0.10993E-03  6112   0.810E-02    0.301E-01
DAV:  47    -0.117487663555E+04   -0.46475E-01   -0.37346E-03  5664   0.143E-01    0.362E-01
DAV:  48    -0.117492826667E+04   -0.51631E-01   -0.57480E-03  5568   0.159E-01    0.235E-01
DAV:  49    -0.117495932655E+04   -0.31060E-01   -0.37160E-03  5728   0.107E-01    0.175E-01
DAV:  50    -0.117497041043E+04   -0.11084E-01   -0.17608E-03  6208   0.130E-01    0.273E-01
DAV:  51    -0.117497610927E+04   -0.56988E-02   -0.65656E-04  5792   0.604E-02    0.228E-01
DAV:  52    -0.117498050936E+04   -0.44001E-02   -0.53128E-04  5568   0.494E-02    0.161E-01
DAV:  53    -0.117498324032E+04   -0.27310E-02   -0.42795E-04  5792   0.390E-02    0.119E-01
DAV:  54    -0.117498386204E+04   -0.62172E-03   -0.26760E-04  5856   0.476E-02    0.813E-02
DAV:  55    -0.117498534222E+04   -0.14802E-02   -0.14720E-04  5824   0.308E-02    0.460E-02
DAV:  56    -0.117498643386E+04   -0.10916E-02   -0.75380E-05  5760   0.188E-02    0.461E-02
DAV:  57    -0.117498734832E+04   -0.91446E-03   -0.48740E-05  5696   0.161E-02    0.344E-02
DAV:  58    -0.117498802477E+04   -0.67645E-03   -0.60202E-05  5920   0.165E-02    0.221E-02
DAV:  59    -0.117498838296E+04   -0.35819E-03   -0.25165E-05  5664   0.971E-03    0.210E-02
DAV:  60    -0.117498852839E+04   -0.14543E-03   -0.61317E-06  4992   0.564E-03    0.182E-02
DAV:  61    -0.117498871383E+04   -0.18544E-03   -0.15010E-05  5440   0.746E-03    0.139E-02
DAV:  62    -0.117498875299E+04   -0.39159E-04   -0.98545E-06  5280   0.505E-03    0.120E-02
DAV:  63    -0.117498871882E+04    0.34169E-04   -0.32559E-06  4608   0.415E-03    0.879E-03
DAV:  64    -0.117498871407E+04    0.47473E-05   -0.12800E-06  3872   0.321E-03    0.818E-03
DAV:  65    -0.117498871270E+04    0.13745E-05   -0.11721E-06  3712   0.222E-03    0.738E-03
DAV:  66    -0.117498872508E+04   -0.12385E-04   -0.98643E-07  3776   0.192E-03    0.731E-03
DAV:  67    -0.117498876592E+04   -0.40842E-04   -0.22522E-06  4224   0.291E-03    0.796E-03
DAV:  68    -0.117498881984E+04   -0.53912E-04   -0.25375E-06  4608   0.268E-03    0.806E-03
DAV:  69    -0.117498888528E+04   -0.65443E-04   -0.98902E-06  5344   0.480E-03    0.627E-03
DAV:  70    -0.117498891069E+04   -0.25416E-04   -0.45097E-06  5344   0.355E-03    0.502E-03
DAV:  71    -0.117498891919E+04   -0.84918E-05   -0.32902E-06  4704   0.277E-03    0.434E-03
DAV:  72    -0.117498892242E+04   -0.32356E-05   -0.30417E-06  4992   0.262E-03    0.374E-03
DAV:  73    -0.117498892840E+04   -0.59809E-05   -0.88467E-06  5536   0.361E-03    0.245E-03
DAV:  74    -0.117498893191E+04   -0.35039E-05   -0.45989E-06  5088   0.296E-03    0.192E-03
DAV:  75    -0.117498893414E+04   -0.22325E-05   -0.46734E-07  3616   0.127E-03    0.186E-03
DAV:  76    -0.117498893692E+04   -0.27765E-05   -0.37734E-07  3584   0.109E-03    0.165E-03
DAV:  77    -0.117498894081E+04   -0.38903E-05   -0.12546E-06  3584   0.148E-03    0.134E-03
DAV:  78    -0.117498894115E+04   -0.34832E-06   -0.32842E-07  3648   0.111E-03
   1 F= -.11857801E+04 E0= -.11857598E+04  d E =-.118578E+04  mag=    -0.0000
