 vasp.6.0.8 29Jun18 (build Mar 14 2019 11:44:20) complex                        
  
 executed on             LinuxIFC date 2020.12.24  11:06:11
 running  128 mpi-ranks, with    1 threads/rank
 distrk:  each k-point on  128 cores,    1 groups
 distr:  one band on NCORES_PER_BAND=   4 cores,   32 groups


--------------------------------------------------------------------------------------------------------


 INCAR:
 POTCAR:    PAW_PBE C 08Apr2002                   
 POTCAR:    PAW_PBE Fe 06Sep2000                  
 POTCAR:    PAW_PBE H 15Jun2001                   
 POTCAR:    PAW_PBE N 08Apr2002                   
 POTCAR:    PAW_PBE O 08Apr2002                   
 POTCAR:    PAW_PBE C 08Apr2002                   
   VRHFIN =C: s2p2                                                              
   LEXCH  = PE                                                                  
   EATOM  =   147.1560 eV,   10.8157 Ry                                         
                                                                                
   TITEL  = PAW_PBE C 08Apr2002                                                 
   LULTRA =        F    use ultrasoft PP ?                                      
   IUNSCR =        1    unscreen: 0-lin 1-nonlin 2-no                           
   RPACOR =    1.200    partial core radius                                     
   POMASS =   12.011; ZVAL   =    4.000    mass and valenz                      
   RCORE  =    1.500    outmost cutoff radius                                   
   RWIGS  =    1.630; RWIGS  =    0.863    wigner-seitz radius (au A)           
   ENMAX  =  400.000; ENMIN  =  300.000 eV                                      
   ICORE  =        2    local potential                                         
   LCOR   =        T    correct aug charges                                     
   LPAW   =        T    paw PP                                                  
   EAUG   =  644.873                                                            
   DEXC   =    0.000                                                            
   RMAX   =    1.529    core radius for proj-oper                               
   RAUG   =    1.300    factor for augmentation sphere                          
   RDEP   =    1.501    radius for radial grids                                 
   RDEPT  =    1.300    core radius for aug-charge                              
                                                                                
   Atomic configuration                                                         
    4 entries                                                                   
     n  l   j            E        occ.                                          
     1  0  0.50      -273.3789   2.0000                                         
     2  0  0.50       -13.7508   2.0000                                         
     2  1  0.50        -5.2854   2.0000                                         
     3  2  1.50        -5.4423   0.0000                                         
   Description                                                                  
     l       E           TYP  RCUT    TYP  RCUT                                 
     0    -13.7508458     23  1.200                                             
     0     -8.2022199     23  1.200                                             
     1     -5.2854383     23  1.500                                             
     1     34.0145650     23  1.500                                             
     2     -5.4423304      7  1.500                                             
  local pseudopotential read in
  partial core-charges read in
  partial kinetic energy density read in
  atomic valenz-charges read in
  non local Contribution for L=           0  read in
    real space projection operators read in
  non local Contribution for L=           0  read in
    real space projection operators read in
  non local Contribution for L=           1  read in
    real space projection operators read in
  non local Contribution for L=           1  read in
    real space projection operators read in
    PAW grid and wavefunctions read in
 
   number of l-projection  operators is LMAX  =           4
   number of lm-projection operators is LMMAX =           8
 
 POTCAR:    PAW_PBE Fe 06Sep2000                  
   VRHFIN =Fe:  d7 s1                                                           
   LEXCH  = PE                                                                  
   EATOM  =   594.3153 eV,   43.6809 Ry                                         
                                                                                
   TITEL  = PAW_PBE Fe 06Sep2000                                                
   LULTRA =        F    use ultrasoft PP ?                                      
   IUNSCR =        1    unscreen: 0-lin 1-nonlin 2-no                           
   RPACOR =    2.000    partial core radius                                     
   POMASS =   55.847; ZVAL   =    8.000    mass and valenz                      
   RCORE  =    2.300    outmost cutoff radius                                   
   RWIGS  =    2.460; RWIGS  =    1.302    wigner-seitz radius (au A)           
   ENMAX  =  267.882; ENMIN  =  200.911 eV                                      
   RCLOC  =    1.701    cutoff for local pot                                    
   LCOR   =        T    correct aug charges                                     
   LPAW   =        T    paw PP                                                  
   EAUG   =  511.368                                                            
   DEXC   =    0.000                                                            
   RMAX   =    2.356    core radius for proj-oper                               
   RAUG   =    1.300    factor for augmentation sphere                          
   RDEP   =    2.442    radius for radial grids                                 
   RDEPT  =    1.890    core radius for aug-charge                              
                                                                                
   Atomic configuration                                                         
    9 entries                                                                   
     n  l   j            E        occ.                                          
     1  0  0.50     -6993.8440   2.0000                                         
     2  0  0.50      -814.6047   2.0000                                         
     2  1  1.50      -693.3689   6.0000                                         
     3  0  0.50       -89.4732   2.0000                                         
     3  1  1.50       -55.6373   6.0000                                         
     3  2  2.50        -3.8151   7.0000                                         
     4  0  0.50        -4.2551   1.0000                                         
     4  1  1.50        -3.4015   0.0000                                         
     4  3  2.50        -1.3606   0.0000                                         
   Description                                                                  
     l       E           TYP  RCUT    TYP  RCUT                                 
     2     -3.8151135     23  2.300                                             
     2     -5.1756961     23  2.300                                             
     0     -4.2550963     23  2.300                                             
     0      7.2035603     23  2.300                                             
     1     -2.7211652     23  2.300                                             
     1     18.4316424     23  2.300                                             
  local pseudopotential read in
  partial core-charges read in
  partial kinetic energy density read in
  atomic valenz-charges read in
  non local Contribution for L=           2  read in
    real space projection operators read in
  non local Contribution for L=           2  read in
    real space projection operators read in
  non local Contribution for L=           0  read in
    real space projection operators read in
  non local Contribution for L=           0  read in
    real space projection operators read in
  non local Contribution for L=           1  read in
    real space projection operators read in
  non local Contribution for L=           1  read in
    real space projection operators read in
    PAW grid and wavefunctions read in
 
   number of l-projection  operators is LMAX  =           6
   number of lm-projection operators is LMMAX =          18
 
 POTCAR:    PAW_PBE H 15Jun2001                   
   VRHFIN =H: ultrasoft test                                                    
   LEXCH  = PE                                                                  
   EATOM  =    12.4884 eV,    0.9179 Ry                                         
                                                                                
   TITEL  = PAW_PBE H 15Jun2001                                                 
   LULTRA =        F    use ultrasoft PP ?                                      
   IUNSCR =        0    unscreen: 0-lin 1-nonlin 2-no                           
   RPACOR =    0.000    partial core radius                                     
   POMASS =    1.000; ZVAL   =    1.000    mass and valenz                      
   RCORE  =    1.100    outmost cutoff radius                                   
   RWIGS  =    0.700; RWIGS  =    0.370    wigner-seitz radius (au A)           
   ENMAX  =  250.000; ENMIN  =  200.000 eV                                      
   RCLOC  =    0.701    cutoff for local pot                                    
   LCOR   =        T    correct aug charges                                     
   LPAW   =        T    paw PP                                                  
   EAUG   =  400.000                                                            
   RMAX   =    1.123    core radius for proj-oper                               
   RAUG   =    1.200    factor for augmentation sphere                          
   RDEP   =    1.112    radius for radial grids                                 
   RDEPT  =    0.926    core radius for aug-charge                              
                                                                                
   Atomic configuration                                                         
    2 entries                                                                   
     n  l   j            E        occ.                                          
     1  0  0.50        -6.4927   1.0000                                         
     2  1  0.50        -3.4015   0.0000                                         
   Description                                                                  
     l       E           TYP  RCUT    TYP  RCUT                                 
     0     -6.4927494     23  1.100                                             
     0      6.8029130     23  1.100                                             
     1     -4.0817478     23  1.100                                             
  local pseudopotential read in
  atomic valenz-charges read in
  non local Contribution for L=           0  read in
    real space projection operators read in
  non local Contribution for L=           0  read in
    real space projection operators read in
  non local Contribution for L=           1  read in
    real space projection operators read in
    PAW grid and wavefunctions read in
 
   number of l-projection  operators is LMAX  =           3
   number of lm-projection operators is LMMAX =           5
 
 POTCAR:    PAW_PBE N 08Apr2002                   
   VRHFIN =N: s2p3                                                              
   LEXCH  = PE                                                                  
   EATOM  =   264.5486 eV,   19.4438 Ry                                         
                                                                                
   TITEL  = PAW_PBE N 08Apr2002                                                 
   LULTRA =        F    use ultrasoft PP ?                                      
   IUNSCR =        1    unscreen: 0-lin 1-nonlin 2-no                           
   RPACOR =    1.200    partial core radius                                     
   POMASS =   14.001; ZVAL   =    5.000    mass and valenz                      
   RCORE  =    1.500    outmost cutoff radius                                   
   RWIGS  =    1.400; RWIGS  =    0.741    wigner-seitz radius (au A)           
   ENMAX  =  400.000; ENMIN  =  300.000 eV                                      
   ICORE  =        2    local potential                                         
   LCOR   =        T    correct aug charges                                     
   LPAW   =        T    paw PP                                                  
   EAUG   =  627.112                                                            
   DEXC   =    0.000                                                            
   RMAX   =    1.529    core radius for proj-oper                               
   RAUG   =    1.300    factor for augmentation sphere                          
   RDEP   =    1.514    radius for radial grids                                 
   RDEPT  =    1.338    core radius for aug-charge                              
                                                                                
   Atomic configuration                                                         
    4 entries                                                                   
     n  l   j            E        occ.                                          
     1  0  0.50      -384.7179   2.0000                                         
     2  0  0.50       -18.5828   2.0000                                         
     2  1  0.50        -7.0898   3.0000                                         
     3  2  1.50        -6.8029   0.0000                                         
   Description                                                                  
     l       E           TYP  RCUT    TYP  RCUT                                 
     0    -18.5828119     23  1.200                                             
     0    -13.5018863     23  1.200                                             
     1     -7.0897853     23  1.500                                             
     1      9.5240782     23  1.500                                             
     2     -6.8029130      7  1.500                                             
  local pseudopotential read in
  partial core-charges read in
  partial kinetic energy density read in
  atomic valenz-charges read in
  non local Contribution for L=           0  read in
    real space projection operators read in
  non local Contribution for L=           0  read in
    real space projection operators read in
  non local Contribution for L=           1  read in
    real space projection operators read in
  non local Contribution for L=           1  read in
    real space projection operators read in
    PAW grid and wavefunctions read in
 
   number of l-projection  operators is LMAX  =           4
   number of lm-projection operators is LMMAX =           8
 
 POTCAR:    PAW_PBE O 08Apr2002                   
   VRHFIN =O: s2p4                                                              
   LEXCH  = PE                                                                  
   EATOM  =   432.3788 eV,   31.7789 Ry                                         
                                                                                
   TITEL  = PAW_PBE O 08Apr2002                                                 
   LULTRA =        F    use ultrasoft PP ?                                      
   IUNSCR =        1    unscreen: 0-lin 1-nonlin 2-no                           
   RPACOR =    1.200    partial core radius                                     
   POMASS =   16.000; ZVAL   =    6.000    mass and valenz                      
   RCORE  =    1.520    outmost cutoff radius                                   
   RWIGS  =    1.550; RWIGS  =    0.820    wigner-seitz radius (au A)           
   ENMAX  =  400.000; ENMIN  =  300.000 eV                                      
   ICORE  =        2    local potential                                         
   LCOR   =        T    correct aug charges                                     
   LPAW   =        T    paw PP                                                  
   EAUG   =  605.392                                                            
   DEXC   =    0.000                                                            
   RMAX   =    1.553    core radius for proj-oper                               
   RAUG   =    1.300    factor for augmentation sphere                          
   RDEP   =    1.550    radius for radial grids                                 
   RDEPT  =    1.329    core radius for aug-charge                              
                                                                                
   Atomic configuration                                                         
    4 entries                                                                   
     n  l   j            E        occ.                                          
     1  0  0.50      -514.6923   2.0000                                         
     2  0  0.50       -23.9615   2.0000                                         
     2  1  0.50        -9.0305   4.0000                                         
     3  2  1.50        -9.5241   0.0000                                         
   Description                                                                  
     l       E           TYP  RCUT    TYP  RCUT                                 
     0    -23.9615318     23  1.200                                             
     0     -9.5240782     23  1.200                                             
     1     -9.0304911     23  1.520                                             
     1      8.1634956     23  1.520                                             
     2     -9.5240782      7  1.500                                             
  local pseudopotential read in
  partial core-charges read in
  partial kinetic energy density read in
  kinetic energy density of atom read in
  atomic valenz-charges read in
  non local Contribution for L=           0  read in
    real space projection operators read in
  non local Contribution for L=           0  read in
    real space projection operators read in
  non local Contribution for L=           1  read in
    real space projection operators read in
  non local Contribution for L=           1  read in
    real space projection operators read in
    PAW grid and wavefunctions read in
 
   number of l-projection  operators is LMAX  =           4
   number of lm-projection operators is LMMAX =           8
 
 Optimization of the real space projectors (new method)

 maximal supplied QI-value         = 25.13
 optimisation between [QCUT,QGAM] = [ 12.32, 24.88] = [ 42.47,173.37] Ry 
 Optimized for a Real-space Cutoff    1.06 Angstroem

   l    n(q)    QCUT    max X(q) W(low)/X(q) W(high)/X(q)  e(spline) 
   0      8    12.315   115.676    0.34E-03    0.18E-03    0.23E-06
   0      8    12.315    87.132    0.34E-03    0.18E-03    0.22E-06
   1      7    12.315     4.429    0.45E-03    0.12E-03    0.18E-06
   1      7    12.315     2.733    0.35E-03    0.97E-04    0.15E-06
 Optimization of the real space projectors (new method)

 maximal supplied QI-value         = 16.25
 optimisation between [QCUT,QGAM] = [ 12.51, 25.03] = [ 43.85,175.40] Ry 
 Optimized for a Real-space Cutoff    1.35 Angstroem

   l    n(q)    QCUT    max X(q) W(low)/X(q) W(high)/X(q)  e(spline) 
   2      9    12.514    80.901    0.12E-03    0.34E-03    0.58E-06
   2      9    12.514    75.754    0.12E-03    0.34E-03    0.59E-06
   0     10    12.514    58.752    0.17E-03    0.81E-04    0.93E-07
   0     10    12.514    30.679    0.15E-03    0.74E-04    0.88E-07
   1     10    12.514    17.977    0.11E-03    0.79E-04    0.24E-06
   1     10    12.514    13.559    0.97E-04    0.61E-04    0.20E-06
 Optimization of the real space projectors (new method)

 maximal supplied QI-value         = 34.20
 optimisation between [QCUT,QGAM] = [ 12.31, 24.97] = [ 42.46,174.58] Ry 
 Optimized for a Real-space Cutoff    1.00 Angstroem

   l    n(q)    QCUT    max X(q) W(low)/X(q) W(high)/X(q)  e(spline) 
   0      7    12.313    19.460    0.14E-03    0.42E-03    0.16E-06
   0      7    12.313    12.209    0.12E-03    0.40E-03    0.16E-06
   1      7    12.313     4.655    0.33E-03    0.59E-03    0.89E-07
 Optimization of the real space projectors (new method)

 maximal supplied QI-value         = 25.13
 optimisation between [QCUT,QGAM] = [ 12.32, 24.88] = [ 42.47,173.37] Ry 
 Optimized for a Real-space Cutoff    1.20 Angstroem

   l    n(q)    QCUT    max X(q) W(low)/X(q) W(high)/X(q)  e(spline) 
   0      9    12.315    79.467    0.14E-03    0.22E-04    0.37E-06
   0      9    12.315    66.151    0.14E-03    0.23E-04    0.36E-06
   1      8    12.315    22.077    0.30E-03    0.54E-03    0.45E-06
   1      8    12.315    15.894    0.30E-03    0.55E-03    0.45E-06
 Optimization of the real space projectors (new method)

 maximal supplied QI-value         = 24.76
 optimisation between [QCUT,QGAM] = [ 12.38, 25.00] = [ 42.90,175.06] Ry 
 Optimized for a Real-space Cutoff    1.13 Angstroem

   l    n(q)    QCUT    max X(q) W(low)/X(q) W(high)/X(q)  e(spline) 
   0      8    12.378    20.381    0.16E-03    0.54E-05    0.27E-06
   0      8    12.378    15.268    0.17E-03    0.61E-05    0.29E-06
   1      8    12.378     5.964    0.38E-03    0.23E-03    0.28E-06
   1      8    12.378     5.382    0.33E-03    0.20E-03    0.25E-06
  PAW_PBE C 08Apr2002                   :
 energy of atom  1       EATOM= -147.1560
 kinetic energy error for atom=    0.0057 (will be added to EATOM!!)
  PAW_PBE Fe 06Sep2000                  :
 energy of atom  2       EATOM= -594.3153
 kinetic energy error for atom=    0.0017 (will be added to EATOM!!)
  PAW_PBE H 15Jun2001                   :
 energy of atom  3       EATOM=  -12.4884
 kinetic energy error for atom=    0.0004 (will be added to EATOM!!)
  PAW_PBE N 08Apr2002                   :
 energy of atom  4       EATOM= -264.5486
 kinetic energy error for atom=    0.0103 (will be added to EATOM!!)
  PAW_PBE O 08Apr2002                   :
 energy of atom  5       EATOM= -432.3788
 kinetic energy error for atom=    0.0168 (will be added to EATOM!!)
 
 
 POSCAR: FeH_exp1
  positions in direct lattice
  velocities in cartesian coordinates
 exchange correlation table for  LEXCH =        8
   RHO(1)=    0.500       N(1)  =     2000
   RHO(2)=  100.500       N(2)  =     4000
 


--------------------------------------------------------------------------------------------------------


 ion  position               nearest neighbor table
   1  0.896  0.970  0.086- 107 1.09 117 1.35  65 1.40
   2  0.933  0.984  0.397- 112 1.08 118 1.35  65 1.40
   3  0.895  0.812  0.920- 116 1.09 119 1.35  66 1.40
   4  0.604  0.470  0.589- 110 1.09 120 1.35  67 1.40
   5  0.569  0.297  0.114- 111 1.08 121 1.35  68 1.40
   6  0.067  0.797  0.109- 115 1.09 122 1.35  69 1.40
   7  0.568  0.483  0.901- 101 1.08 123 1.35  67 1.40
   8  0.605  0.311  0.425- 113 1.09 124 1.35  68 1.40
   9  0.432  0.483  0.400- 114 1.09 125 1.35  70 1.40
  10  0.104  0.810  0.420- 104 1.09 126 1.35  69 1.40
  11  0.068  0.983  0.896- 105 1.09 127 1.35  71 1.40
  12  0.433  0.297  0.614- 102 1.09 128 1.35  72 1.40
  13  0.931  0.798  0.609- 108 1.09 129 1.35  66 1.40
  14  0.105  0.969  0.586- 109 1.09 130 1.35  71 1.40
  15  0.396  0.310  0.925- 106 1.09 131 1.35  72 1.40
  16  0.395  0.469  0.090- 103 1.09 132 1.35  70 1.40
  17  0.818  0.035  0.441- 141 1.23 133 1.42  33 1.48
  18  0.846  0.084  0.054- 142 1.23 133 1.42  34 1.48
  19  0.844  0.698  0.955- 143 1.23 134 1.42  35 1.48
  20  0.654  0.584  0.555- 144 1.23 135 1.42  36 1.48
  21  0.656  0.198  0.459- 145 1.23 136 1.42  37 1.48
  22  0.182  0.746  0.067- 146 1.23 137 1.42  38 1.48
  23  0.682  0.535  0.942- 147 1.23 135 1.42  39 1.48
  24  0.684  0.247  0.072- 148 1.23 136 1.42  40 1.48
  25  0.317  0.534  0.442- 149 1.23 138 1.42  41 1.48
  26  0.154  0.697  0.454- 150 1.23 137 1.42  42 1.48
  27  0.156  0.083  0.553- 151 1.23 139 1.42  43 1.48
  28  0.346  0.196  0.957- 152 1.23 140 1.42  44 1.48
  29  0.816  0.747  0.568- 153 1.23 134 1.42  45 1.48
  30  0.183  0.034  0.939- 154 1.23 139 1.42  46 1.48
  31  0.318  0.246  0.571- 155 1.23 140 1.42  47 1.48
  32  0.345  0.583  0.055- 156 1.23 138 1.42  48 1.48
  33  0.776  0.077  0.440-  49 1.39  73 1.42  17 1.48
  34  0.805  0.126  0.065-  50 1.39  73 1.42  18 1.48
  35  0.803  0.657  0.946-  51 1.39  74 1.42  19 1.48
  36  0.695  0.626  0.565-  52 1.39  75 1.42  20 1.48
  37  0.697  0.156  0.448-  53 1.39  76 1.42  21 1.48
  38  0.224  0.704  0.070-  54 1.39  77 1.42  22 1.48
  39  0.724  0.577  0.940-  55 1.39  75 1.42  23 1.48
  40  0.726  0.205  0.073-  56 1.39  76 1.42  24 1.48
  41  0.275  0.575  0.439-  57 1.39  78 1.42  25 1.48
  42  0.195  0.655  0.445-  58 1.39  77 1.42  26 1.48
  43  0.197  0.125  0.563-  59 1.39  79 1.42  27 1.48
  44  0.305  0.155  0.946-  60 1.39  80 1.42  28 1.48
  45  0.774  0.706  0.571-  61 1.39  74 1.42  29 1.48
  46  0.225  0.075  0.938-  62 1.39  79 1.42  30 1.48
  47  0.276  0.204  0.572-  63 1.39  80 1.42  31 1.48
  48  0.303  0.624  0.064-  64 1.39  78 1.42  32 1.48
  49  0.742  0.072  0.623-  88 1.09  33 1.39  53 1.40
  50  0.799  0.170  0.886-  99 1.09  34 1.39  56 1.40
  51  0.798  0.612  0.125-  93 1.09  35 1.39  55 1.40
  52  0.700  0.670  0.385-  90 1.09  36 1.39  61 1.40
  53  0.703  0.112  0.627-  98 1.09  37 1.39  49 1.40
  54  0.258  0.708  0.887-  96 1.09  38 1.39  64 1.40
  55  0.758  0.573  0.122-  86 1.09  39 1.39  51 1.40
  56  0.760  0.210  0.890-  87 1.09  40 1.39  50 1.40
  57  0.240  0.571  0.622-  95 1.09  41 1.39  58 1.40
  58  0.201  0.611  0.625-  91 1.09  42 1.39  57 1.40
  59  0.202  0.169  0.384-  92 1.09  43 1.39  63 1.40
  60  0.299  0.110  0.125-  85 1.09  44 1.39  62 1.40
  61  0.740  0.710  0.388-  89 1.09  45 1.39  52 1.40
  62  0.260  0.071  0.121- 100 1.09  46 1.39  60 1.40
  63  0.242  0.209  0.389-  94 1.09  47 1.39  59 1.40
  64  0.298  0.669  0.884-  97 1.09  48 1.39  54 1.40
  65  0.890  0.001  0.242-   2 1.40   1 1.40 133 1.42
  66  0.889  0.781  0.764-  13 1.40   3 1.40 134 1.42
  67  0.610  0.501  0.745-   7 1.40   4 1.40 135 1.42
  68  0.611  0.281  0.269-   5 1.40   8 1.40 136 1.42
  69  0.109  0.780  0.264-   6 1.40  10 1.40 137 1.42
  70  0.389  0.500  0.245-   9 1.40  16 1.40 138 1.42
  71  0.111  0.000  0.741-  11 1.40  14 1.40 139 1.42
  72  0.390  0.280  0.769-  12 1.40  15 1.40 140 1.42
  73  0.771  0.121  0.254-  33 1.42  34 1.42  76 1.43
  74  0.769  0.661  0.757-  45 1.42  35 1.42  75 1.43
  75  0.729  0.621  0.754-  39 1.42  36 1.42  74 1.43
  76  0.731  0.161  0.258-  40 1.42  37 1.42  73 1.43
  77  0.229  0.660  0.256-  38 1.42  42 1.42  78 1.43
  78  0.269  0.620  0.253-  41 1.42  48 1.42  77 1.43
  79  0.231  0.120  0.753-  46 1.42  43 1.42  80 1.43
  80  0.271  0.160  0.757-  47 1.42  44 1.42  79 1.43
  81  0.985  0.891  0.003- 119 2.00 117 2.00 127 2.01 122 2.01
  82  0.015  0.890  0.503- 126 2.00 130 2.00 118 2.01 129 2.01
  83  0.515  0.390  0.507- 124 2.00 120 2.00 125 2.01 128 2.01
  84  0.485  0.390  0.008- 131 2.00 132 2.00 121 2.01 123 2.01
  85  0.326  0.107  0.269-  60 1.09
  86  0.754  0.538  0.263-  55 1.09
  87  0.755  0.245  0.750-  56 1.09
  88  0.747  0.038  0.763-  49 1.09
  89  0.744  0.744  0.248-  61 1.09
  90  0.674  0.673  0.242-  52 1.09
  91  0.174  0.608  0.767-  58 1.09
  92  0.176  0.172  0.241-  59 1.09
  93  0.824  0.610  0.268-  51 1.09
  94  0.246  0.243  0.249-  63 1.09
  95  0.245  0.537  0.762-  57 1.09
  96  0.254  0.743  0.747-  54 1.09
  97  0.325  0.671  0.741-  64 1.09
  98  0.676  0.109  0.771-  53 1.09
  99  0.826  0.173  0.742-  50 1.09
 100  0.255  0.036  0.261-  62 1.09
 101  0.557  0.497  0.048-   7 1.08
 102  0.443  0.284  0.466-  12 1.09
 103  0.371  0.470  0.941-  16 1.09
 104  0.128  0.809  0.570-  10 1.09
 105  0.058  0.996  0.044-  11 1.09
 106  0.372  0.309  0.074-  15 1.09
 107  0.872  0.972  0.937-   1 1.09
 108  0.942  0.785  0.462-  13 1.09
 109  0.129  0.970  0.437-  14 1.09
 110  0.628  0.472  0.440-   4 1.09
 111  0.558  0.284  0.967-   5 1.08
 112  0.943  0.997  0.544-   2 1.08
 113  0.629  0.311  0.573-   8 1.09
 114  0.442  0.496  0.548-   9 1.09
 115  0.057  0.784  0.961-   6 1.09
 116  0.871  0.811  0.069-   3 1.09
 117  0.939  0.937  0.146-   1 1.35 118 1.37  81 2.00
 118  0.961  0.945  0.336-   2 1.35 117 1.37  82 2.01
 119  0.938  0.845  0.859-   3 1.35 129 1.37  81 2.00
 120  0.561  0.436  0.650-   4 1.35 123 1.37  83 2.00
 121  0.539  0.336  0.174-   5 1.35 124 1.37  84 2.01
 122  0.039  0.836  0.169-   6 1.35 126 1.37  81 2.01
 123  0.539  0.445  0.841-   7 1.35 120 1.37  84 2.01
 124  0.562  0.345  0.364-   8 1.35 121 1.37  83 2.00
 125  0.461  0.444  0.341-   9 1.35 132 1.37  83 2.01
 126  0.061  0.844  0.360-  10 1.35 122 1.37  82 2.00
 127  0.039  0.945  0.836-  11 1.35 130 1.37  81 2.01
 128  0.461  0.336  0.674-  12 1.35 131 1.37  83 2.01
 129  0.961  0.837  0.669-  13 1.35 119 1.37  82 2.01
 130  0.062  0.936  0.646-  14 1.35 127 1.37  82 2.00
 131  0.439  0.344  0.865-  15 1.35 128 1.37  84 2.00
 132  0.438  0.436  0.151-  16 1.35 125 1.37  84 2.00
 133  0.850  0.041  0.246-  17 1.42  18 1.42  65 1.42
 134  0.849  0.741  0.762-  29 1.42  19 1.42  66 1.42
 135  0.650  0.541  0.747-  23 1.42  20 1.42  67 1.42
 136  0.651  0.241  0.267-  24 1.42  21 1.42  68 1.42
 137  0.149  0.740  0.262-  22 1.42  26 1.42  69 1.42
 138  0.349  0.540  0.247-  25 1.42  32 1.42  70 1.42
 139  0.151  0.040  0.744-  30 1.42  27 1.42  71 1.42
 140  0.350  0.240  0.766-  31 1.42  28 1.42  72 1.42
 141  0.825  0.997  0.600-  17 1.23
 142  0.875  0.086  0.890-  18 1.23
 143  0.873  0.697  0.118-  19 1.23
 144  0.625  0.586  0.392-  20 1.23
 145  0.627  0.196  0.623-  21 1.23
 146  0.175  0.784  0.908-  22 1.23
 147  0.675  0.497  0.102-  23 1.23
 148  0.676  0.285  0.912-  24 1.23
 149  0.324  0.496  0.603-  25 1.23
 150  0.125  0.695  0.617-  26 1.23
 151  0.127  0.085  0.389-  27 1.23
 152  0.375  0.195  0.121-  28 1.23
 153  0.823  0.786  0.408-  29 1.23
 154  0.176  0.995  0.099-  30 1.23
 155  0.325  0.284  0.411-  31 1.23
 156  0.374  0.584  0.891-  32 1.23
 

IMPORTANT INFORMATION: All symmetrisations will be switched off!
NOSYMM: (Re-)initialisation of all symmetry stuff for point group C_1.


----------------------------------------------------------------------------------------

                                     Primitive cell                                     

  volume of cell :    3774.3832

  direct lattice vectors                    reciprocal lattice vectors
    24.214305761 -0.000088263  0.005225567     0.041297903  0.000002608 -0.000008749
    -0.000798600 25.548686176  3.845119021     0.000001010  0.039744410 -0.004009617
     0.001272983  0.624995508  6.195124497    -0.000035462 -0.024668108  0.163905907

  length of vectors
    24.214306325 25.836414346  6.226571170     0.041297904  0.039946153  0.165751812

  position of ions in fractional coordinates (direct lattice)
     0.895677242  0.970454034  0.085979828
     0.932606220  0.983750754  0.396636745
     0.894783651  0.811806629  0.919693280
     0.604162731  0.470319657  0.589084264
     0.568542061  0.297439039  0.114436847
     0.067397117  0.797139690  0.108938914
     0.567536599  0.483494191  0.900603476
     0.605155533  0.311380313  0.424558790
     0.431640693  0.482997595  0.400449311
     0.104013558  0.810248925  0.420447145
     0.068400918  0.983223088  0.896169066
     0.432601980  0.296916723  0.613739512
     0.931320064  0.797911736  0.609253756
     0.105128643  0.969453246  0.585857013
     0.395851893  0.310075555  0.925078821
     0.395123491  0.469293862  0.089760693
     0.818117683  0.034969353  0.440880606
     0.845727441  0.084167032  0.054078897
     0.844198848  0.698278216  0.954711663
     0.654055437  0.584025901  0.555255568
     0.655968043  0.197887445  0.458553669
     0.181936487  0.745599410  0.067384368
     0.681888556  0.535170234  0.942117026
     0.683523360  0.247041114  0.071629469
     0.316827994  0.533952982  0.442128515
     0.153953806  0.696614598  0.453985080
     0.155788632  0.082983535  0.552637961
     0.345729193  0.196428279  0.956932220
     0.816231067  0.747258908  0.568110127
     0.183350104  0.033699876  0.939377277
     0.318051855  0.245780437  0.570572010
     0.344575176  0.582765497  0.054931947
     0.776214289  0.076645955  0.439761540
     0.804794895  0.125960607  0.064715730
     0.803074272  0.656537786  0.945687866
     0.694990092  0.625906558  0.564668091
     0.696999834  0.156168943  0.448202466
     0.223910453  0.703916756  0.069742597
     0.723786754  0.576923484  0.939747641
     0.725557100  0.205467059  0.073078190
     0.274657645  0.575485803  0.439333940
     0.195070128  0.654882177  0.444837083
     0.196824408  0.124688000  0.563183982
     0.304675177  0.154729737  0.946496430
     0.774245250  0.705565767  0.570709970
     0.225344491  0.075299520  0.938139761
     0.276103394  0.204145592  0.571702117
     0.303411064  0.624461723  0.064034131
     0.741850583  0.072299974  0.623026668
     0.799362105  0.170393852  0.885918571
     0.797657732  0.612291788  0.125334994
     0.700359094  0.670198835  0.385187673
     0.702525885  0.111799514  0.627219096
     0.258474139  0.708142638  0.887139303
     0.758285567  0.572750319  0.122401530
     0.760014056  0.209879033  0.890037400
     0.240055760  0.571225511  0.621835142
     0.200529974  0.610656205  0.624508247
     0.202348114  0.169109282  0.384364576
     0.299125618  0.110328513  0.125369017
     0.739703192  0.709766693  0.388187138
     0.259734913  0.070878846  0.121234399
     0.241703032  0.208581474  0.388600808
     0.297931061  0.668665607  0.884285531
     0.890350430  0.000987230  0.242092057
     0.889046050  0.781131876  0.764351244
     0.609570681  0.500888024  0.745006258
     0.610843247  0.280677694  0.269258590
     0.109433347  0.779722541  0.264368416
     0.389461940  0.499954053  0.245239049
     0.110729567  0.000089461  0.741434613
     0.390451640  0.279587226  0.768871521
     0.770940945  0.120933656  0.254343295
     0.769080768  0.661394711  0.756680696
     0.728950393  0.621084912  0.753745013
     0.730827930  0.161179708  0.258494582
     0.229119667  0.659787943  0.255832002
     0.269392461  0.619581830  0.253117602
     0.230653127  0.119610401  0.752808667
     0.270813406  0.159820086  0.756967843
     0.984843339  0.890644216  0.002503333
     0.015178846  0.890394598  0.502713966
     0.515132539  0.390340376  0.507190260
     0.484936249  0.390023503  0.007535721
     0.325789569  0.107437776  0.268803147
     0.753568489  0.538230875  0.262830416
     0.755269342  0.244518480  0.750190328
     0.746655066  0.037693895  0.762992779
     0.744366970  0.744309628  0.247827931
     0.673622079  0.672891023  0.242087485
     0.173709093  0.607902985  0.767490798
     0.175695975  0.171988831  0.240912417
     0.824406322  0.609596023  0.268395824
     0.246469201  0.243246751  0.248850747
     0.244833699  0.536761822  0.762426266
     0.253749226  0.742634996  0.746650447
     0.324702914  0.671379752  0.741196061
     0.675912027  0.108970286  0.770836701
     0.826050776  0.173249911  0.742493172
     0.254925509  0.036253106  0.261128659
     0.557111088  0.496513732  0.048438692
     0.443061785  0.283922638  0.465859305
     0.371392858  0.470319726  0.940596213
     0.127764633  0.808924957  0.569823276
     0.057999749  0.996465179  0.043520190
     0.372043349  0.308796908  0.074340792
     0.871793957  0.971666968  0.937003518
     0.941625364  0.784604105  0.461965732
     0.128986840  0.970415933  0.436988635
     0.627909862  0.471605268  0.439658232
     0.558218411  0.284113302  0.967249515
     0.943134307  0.996806650  0.544242409
     0.628975781  0.310509216  0.573380950
     0.441948303  0.496243335  0.547848524
     0.056959410  0.784137148  0.961092614
     0.871000185  0.810910687  0.068666236
     0.938637286  0.936690467  0.145986317
     0.961409975  0.945014505  0.336362954
     0.937999761  0.845207188  0.858838452
     0.561371699  0.436390698  0.650143737
     0.539362512  0.336071030  0.173830502
     0.038632179  0.835968686  0.168757256
     0.538783248  0.444633839  0.841036910
     0.561947621  0.344790256  0.363848693
     0.460716232  0.444295943  0.341099546
     0.061223635  0.844175608  0.359650761
     0.039288880  0.944603002  0.836449800
     0.461402047  0.335680937  0.673772910
     0.960535654  0.836522965  0.668607573
     0.061935791  0.935984046  0.646279443
     0.438738825  0.343916331  0.864555374
     0.438194889  0.435719945  0.150727444
     0.850277903  0.041009093  0.245568565
     0.848705479  0.741250014  0.762484395
     0.649568503  0.541035637  0.747413956
     0.651229463  0.240888661  0.266608637
     0.149475292  0.739610878  0.261878838
     0.349186752  0.539875365  0.247366465
     0.151062750  0.039910929  0.744381286
     0.350335496  0.239594881  0.765519696
     0.825154502  0.996517080  0.600443174
     0.874646408  0.085861251  0.890094090
     0.873335299  0.696683197  0.117925322
     0.625082500  0.585514442  0.391693834
     0.627065194  0.196256454  0.622527933
     0.175106805  0.784034452  0.907580771
     0.675004549  0.496791381  0.102141889
     0.676479029  0.285482263  0.912037007
     0.323911940  0.495715826  0.602508391
     0.124843245  0.695022630  0.617359627
     0.126907186  0.084688394  0.388638553
     0.374703193  0.194670105  0.120719052
     0.823102607  0.785661939  0.408187141
     0.176332921  0.995173506  0.098667204
     0.325021081  0.284322486  0.411296843
     0.373648196  0.584333706  0.891459808

  ion indices of the primitive-cell ions
   primitive index   ion index
                 1           1
                 2           2
                 3           3
                 4           4
                 5           5
                 6           6
                 7           7
                 8           8
                 9           9
                10          10
                11          11
                12          12
                13          13
                14          14
                15          15
                16          16
                17          17
                18          18
                19          19
                20          20
                21          21
                22          22
                23          23
                24          24
                25          25
                26          26
                27          27
                28          28
                29          29
                30          30
                31          31
                32          32
                33          33
                34          34
                35          35
                36          36
                37          37
                38          38
                39          39
                40          40
                41          41
                42          42
                43          43
                44          44
                45          45
                46          46
                47          47
                48          48
                49          49
                50          50
                51          51
                52          52
                53          53
                54          54
                55          55
                56          56
                57          57
                58          58
                59          59
                60          60
                61          61
                62          62
                63          63
                64          64
                65          65
                66          66
                67          67
                68          68
                69          69
                70          70
                71          71
                72          72
                73          73
                74          74
                75          75
                76          76
                77          77
                78          78
                79          79
                80          80
                81          81
                82          82
                83          83
                84          84
                85          85
                86          86
                87          87
                88          88
                89          89
                90          90
                91          91
                92          92
                93          93
                94          94
                95          95
                96          96
                97          97
                98          98
                99          99
               100         100
               101         101
               102         102
               103         103
               104         104
               105         105
               106         106
               107         107
               108         108
               109         109
               110         110
               111         111
               112         112
               113         113
               114         114
               115         115
               116         116
               117         117
               118         118
               119         119
               120         120
               121         121
               122         122
               123         123
               124         124
               125         125
               126         126
               127         127
               128         128
               129         129
               130         130
               131         131
               132         132
               133         133
               134         134
               135         135
               136         136
               137         137
               138         138
               139         139
               140         140
               141         141
               142         142
               143         143
               144         144
               145         145
               146         146
               147         147
               148         148
               149         149
               150         150
               151         151
               152         152
               153         153
               154         154
               155         155
               156         156

----------------------------------------------------------------------------------------

 
 

Automatic generation of k-mesh.
 generate k-points for:    1    1    4
Space group operators:
 irot       det(A)        alpha          n_x          n_y          n_z        tau_x        tau_y        tau_z
    1     1.000000     0.000000     1.000000     0.000000     0.000000     0.000000     0.000000     0.000000
 
 Subroutine IBZKPT returns following result:
 ===========================================
 
 Found      3 irreducible k-points:
 
 Following reciprocal coordinates:
            Coordinates               Weight
  0.000000  0.000000  0.000000      1.000000
 -0.000000  0.000000  0.250000      2.000000
 -0.000000  0.000000  0.500000      1.000000
 
 Following cartesian coordinates:
            Coordinates               Weight
  0.000000  0.000000  0.000000      1.000000
 -0.000009 -0.006167  0.040976      2.000000
 -0.000018 -0.012334  0.081953      1.000000
 


--------------------------------------------------------------------------------------------------------




 Dimension of arrays:
   k-points           NKPTS =      3   k-points in BZ     NKDIM =      3   number of bands    NBANDS=    384
   number of dos      NEDOS =    301   number of ions     NIONS =    156
   non local maximal  LDIM  =      6   non local SUM 2l+1 LMDIM =     18
   total plane-waves  NPLWV = 960000
   max r-space proj   IRMAX =   2647   max aug-charges    IRDMAX=   9259
   dimension x,y,z NGX =   150 NGY =  160 NGZ =   40
   dimension x,y,z NGXF=   300 NGYF=  320 NGZF=   80
   support grid    NGXF=   300 NGYF=  320 NGZF=   80
   ions per type =              80   4  32  24  16
   NGX,Y,Z   is equivalent  to a cutoff of  10.30, 10.30, 10.68 a.u.
   NGXF,Y,Z  is equivalent  to a cutoff of  20.60, 20.59, 21.36 a.u.

 SYSTEM =  flex_MOF                                
 POSCAR =  FeH_exp1                                

 Startparameter for this run:
   NWRITE =      2    write-flag & timer
   PREC   = normal    normal or accurate (medium, high low for compatibility)
   ISTART =      0    job   : 0-new  1-cont  2-samecut
   ICHARG =      2    charge: 1-file 2-atom 10-const
   ISPIN  =      2    spin polarized calculation?
   LNONCOLLINEAR =      F non collinear calculations
   LSORBIT =      F    spin-orbit coupling
   INIWAV =      1    electr: 0-lowe 1-rand  2-diag
   LASPH  =      F    aspherical Exc in radial PAW
   METAGGA=      F    non-selfconsistent MetaGGA calc.

 Electronic Relaxation 1
   ENCUT  =  600.0 eV  44.10 Ry    6.64 a.u.  48.36 51.60 12.44*2*pi/ulx,y,z
   ENINI  =  600.0     initial cutoff
   ENAUG  =  644.9 eV  augmentation charge cutoff
   NELM   =    300;   NELMIN=  3; NELMDL= -8     # of ELM steps 
   EDIFF  = 0.1E-05   stopping-criterion for ELM
   LREAL  =      T    real-space projection
   NLSPLINE    = F    spline interpolate recip. space projectors
   LCOMPAT=      F    compatible to vasp.4.4
   GGA_COMPAT  = T    GGA compatible to vasp.4.4-vasp.4.6
   LMAXPAW     = -100 max onsite density
   LMAXMIX     =    2 max onsite mixed and CHGCAR
   VOSKOWN=      0    Vosko Wilk Nusair interpolation
   ROPT   =   -0.00050  -0.00050  -0.00050  -0.00050
   ROPT   =   -0.00050
 Ionic relaxation
   EDIFFG = -.1E-01   stopping-criterion for IOM
   NSW    =   1000    number of steps for IOM
   NBLOCK =      1;   KBLOCK =   1000    inner block; outer block 
   IBRION =      2    ionic relax: 0-MD 1-quasi-New 2-CG
   NFREE  =      1    steps in history (QN), initial steepest desc. (CG)
   ISIF   =      4    stress and relaxation
   IWAVPR =     11    prediction:  0-non 1-charg 2-wave 3-comb
   ISYM   =      0    0-nonsym 1-usesym 2-fastsym
   LCORR  =      T    Harris-Foulkes like correction to forces

   POTIM  = 0.5000    time-step for ionic-motion
   TEIN   =    0.0    initial temperature
   TEBEG  =    0.0;   TEEND  =   0.0 temperature during run
   SMASS  =  -3.00    Nose mass-parameter (am)
   estimated Nose-frequenzy (Omega)   =  0.10E-29 period in steps = 0.13E+47 mass=  -0.134E-25a.u.
   SCALEE = 1.0000    scale energy and forces
   NPACO  =    256;   APACO  = 16.0  distance and # of slots for P.C.
   PSTRESS=    0.0 pullay stress

  Mass of Ions in am
   POMASS =  12.01 55.85  1.00 14.00 16.00
  Ionic Valenz
   ZVAL   =   4.00  8.00  1.00  5.00  6.00
  Atomic Wigner-Seitz radii
   RWIGS  =  -1.00 -1.00 -1.00 -1.00 -1.00
  virtual crystal weights 
   VCA    =   1.00  1.00  1.00  1.00  1.00
   NELECT =     600.0000    total number of electrons
   NUPDOWN=       0.0000    fix difference up-down

 DOS related values:
   EMIN   =  10.00;   EMAX   =-10.00  energy-range for DOS
   EFERMI =   0.00
   ISMEAR =     0;   SIGMA  =   0.05  broadening in eV -4-tet -1-fermi 0-gaus

 Electronic relaxation 2 (details)
   IALGO  =     38    algorithm
   LDIAG  =      T    sub-space diagonalisation (order eigenvalues)
   LSUBROT=      F    optimize rotation matrix (better conditioning)
   TURBO    =      0    0=normal 1=particle mesh
   IRESTART =      0    0=no restart 2=restart with 2 vectors
   NREBOOT  =      0    no. of reboots
   NMIN     =      0    reboot dimension
   EREF     =   0.00    reference energy to select bands
   IMIX   =      4    mixing-type and parameters
     AMIX     =   0.40;   BMIX     =  1.00
     AMIX_MAG =   1.60;   BMIX_MAG =  1.00
     AMIN     =   0.10
     WC   =   100.;   INIMIX=   1;  MIXPRE=   1;  MAXMIX= -45

 Intra band minimization:
   WEIMIN = 0.0010     energy-eigenvalue tresh-hold
   EBREAK =  0.65E-09  absolut break condition
   DEPER  =   0.30     relativ break condition  

   TIME   =   0.40     timestep for ELM

  volume/ion in A,a.u.               =      24.19       163.27
  Fermi-wavevector in a.u.,A,eV,Ry     =   0.886836  1.675877 10.700681  0.786478
  Thomas-Fermi vector in A             =   2.008055
 
 Write flags
   LWAVE        =      T    write WAVECAR
   LDOWNSAMPLE  =      F    k-point downsampling of WAVECAR
   LCHARG       =      T    write CHGCAR
   LVTOT        =      F    write LOCPOT, total local potential
   LVHAR        =      F    write LOCPOT, Hartree potential only
   LELF         =      F    write electronic localiz. function (ELF)
   LORBIT       =     11    0 simple, 1 ext, 2 COOP (PROOUT), +10 PAW based schemes


 Dipole corrections
   LMONO  =      F    monopole corrections only (constant potential shift)
   LDIPOL =      F    correct potential (dipole corrections)
   IDIPOL =      0    1-x, 2-y, 3-z, 4-all directions 
   EPSILON=  1.0000000 bulk dielectric constant

 Exchange correlation treatment:
   GGA     =    PE    GGA type
   LEXCH   =     8    internal setting for exchange type
   VOSKOWN=      0    Vosko Wilk Nusair interpolation
   LHFCALC =     F    Hartree Fock is set to
   LHFONE  =     F    Hartree Fock one center treatment
   AEXX    =    0.0000 exact exchange contribution

 Linear response parameters
   LEPSILON=     F    determine dielectric tensor
   LRPA    =     F    only Hartree local field effects (RPA)
   LNABLA  =     F    use nabla operator in PAW spheres
   LVEL    =     F    velocity operator in full k-point grid
   LINTERFAST=   F  fast interpolation
   KINTER  =     0    interpolate to denser k-point grid
   CSHIFT  =0.1000    complex shift for real part using Kramers Kronig
   OMEGAMAX=  -1.0    maximum frequency
   DEG_THRESHOLD= 0.2000000E-02 threshold for treating states as degnerate
   RTIME   =   -0.100 relaxation time in fs
  (WPLASMAI=    0.000 imaginary part of plasma frequency in eV, 0.658/RTIME)
   DFIELD  = 0.0000000 0.0000000 0.0000000 field for delta impulse in time
 
 Orbital magnetization related:
   ORBITALMAG=     F  switch on orbital magnetization
   LCHIMAG   =     F  perturbation theory with respect to B field
   DQ        =  0.001000  dq finite difference perturbation B field
   LLRAUG    =     F  two centre corrections for induced B field



--------------------------------------------------------------------------------------------------------


 conjugate gradient relaxation of ions
 charge density and potential will be updated during run
 spin polarized calculation
 Variant of blocked Davidson
 Davidson routine will perform the subspace rotation
 perform sub-space diagonalisation
    after iterative eigenvector-optimisation
 modified Broyden-mixing scheme, WC =      100.0
 initial mixing is a Kerker type mixing with AMIX =  0.4000 and BMIX =      1.0000
 Hartree-type preconditioning will be used
 using additional bands           84
 real space projection scheme for non local part
 use partial core corrections
 calculate Harris-corrections to forces 
   (improved forces if not selfconsistent)
 use gradient corrections 
 use of overlap-Matrix (Vanderbilt PP)
 Gauss-broadening in eV      SIGMA  =   0.05


--------------------------------------------------------------------------------------------------------


  energy-cutoff  :      600.00
  volume of cell :     3774.38
      direct lattice vectors                 reciprocal lattice vectors
    24.214305761 -0.000088263  0.005225567     0.041297903  0.000002608 -0.000008749
    -0.000798600 25.548686176  3.845119021     0.000001010  0.039744410 -0.004009617
     0.001272983  0.624995508  6.195124497    -0.000035462 -0.024668108  0.163905907

  length of vectors
    24.214306325 25.836414346  6.226571170     0.041297904  0.039946153  0.165751812


 
 k-points in units of 2pi/SCALE and weight: read from INCAR                         
   0.00000000  0.00000000  0.00000000       0.250
  -0.00000887 -0.00616703  0.04097648       0.500
  -0.00001773 -0.01233405  0.08195295       0.250
 
 k-points in reciprocal lattice and weights: read from INCAR                         
   0.00000000  0.00000000  0.00000000       0.250
  -0.00000000  0.00000000  0.25000000       0.500
  -0.00000000  0.00000000  0.50000000       0.250
 
 position of ions in fractional coordinates (direct lattice) 
   0.89567724  0.97045403  0.08597983
   0.93260622  0.98375075  0.39663675
   0.89478365  0.81180663  0.91969328
   0.60416273  0.47031966  0.58908426
   0.56854206  0.29743904  0.11443685
   0.06739712  0.79713969  0.10893891
   0.56753660  0.48349419  0.90060348
   0.60515553  0.31138031  0.42455879
   0.43164069  0.48299760  0.40044931
   0.10401356  0.81024893  0.42044715
   0.06840092  0.98322309  0.89616907
   0.43260198  0.29691672  0.61373951
   0.93132006  0.79791174  0.60925376
   0.10512864  0.96945325  0.58585701
   0.39585189  0.31007555  0.92507882
   0.39512349  0.46929386  0.08976069
   0.81811768  0.03496935  0.44088061
   0.84572744  0.08416703  0.05407890
   0.84419885  0.69827822  0.95471166
   0.65405544  0.58402590  0.55525557
   0.65596804  0.19788744  0.45855367
   0.18193649  0.74559941  0.06738437
   0.68188856  0.53517023  0.94211703
   0.68352336  0.24704111  0.07162947
   0.31682799  0.53395298  0.44212851
   0.15395381  0.69661460  0.45398508
   0.15578863  0.08298353  0.55263796
   0.34572919  0.19642828  0.95693222
   0.81623107  0.74725891  0.56811013
   0.18335010  0.03369988  0.93937728
   0.31805185  0.24578044  0.57057201
   0.34457518  0.58276550  0.05493195
   0.77621429  0.07664595  0.43976154
   0.80479490  0.12596061  0.06471573
   0.80307427  0.65653779  0.94568787
   0.69499009  0.62590656  0.56466809
   0.69699983  0.15616894  0.44820247
   0.22391045  0.70391676  0.06974260
   0.72378675  0.57692348  0.93974764
   0.72555710  0.20546706  0.07307819
   0.27465764  0.57548580  0.43933394
   0.19507013  0.65488218  0.44483708
   0.19682441  0.12468800  0.56318398
   0.30467518  0.15472974  0.94649643
   0.77424525  0.70556577  0.57070997
   0.22534449  0.07529952  0.93813976
   0.27610339  0.20414559  0.57170212
   0.30341106  0.62446172  0.06403413
   0.74185058  0.07229997  0.62302667
   0.79936211  0.17039385  0.88591857
   0.79765773  0.61229179  0.12533499
   0.70035909  0.67019884  0.38518767
   0.70252588  0.11179951  0.62721910
   0.25847414  0.70814264  0.88713930
   0.75828557  0.57275032  0.12240153
   0.76001406  0.20987903  0.89003740
   0.24005576  0.57122551  0.62183514
   0.20052997  0.61065620  0.62450825
   0.20234811  0.16910928  0.38436458
   0.29912562  0.11032851  0.12536902
   0.73970319  0.70976669  0.38818714
   0.25973491  0.07087885  0.12123440
   0.24170303  0.20858147  0.38860081
   0.29793106  0.66866561  0.88428553
   0.89035043  0.00098723  0.24209206
   0.88904605  0.78113188  0.76435124
   0.60957068  0.50088802  0.74500626
   0.61084325  0.28067769  0.26925859
   0.10943335  0.77972254  0.26436842
   0.38946194  0.49995405  0.24523905
   0.11072957  0.00008946  0.74143461
   0.39045164  0.27958723  0.76887152
   0.77094094  0.12093366  0.25434329
   0.76908077  0.66139471  0.75668070
   0.72895039  0.62108491  0.75374501
   0.73082793  0.16117971  0.25849458
   0.22911967  0.65978794  0.25583200
   0.26939246  0.61958183  0.25311760
   0.23065313  0.11961040  0.75280867
   0.27081341  0.15982009  0.75696784
   0.98484334  0.89064422  0.00250333
   0.01517885  0.89039460  0.50271397
   0.51513254  0.39034038  0.50719026
   0.48493625  0.39002350  0.00753572
   0.32578957  0.10743778  0.26880315
   0.75356849  0.53823087  0.26283042
   0.75526934  0.24451848  0.75019033
   0.74665507  0.03769390  0.76299278
   0.74436697  0.74430963  0.24782793
   0.67362208  0.67289102  0.24208748
   0.17370909  0.60790298  0.76749080
   0.17569597  0.17198883  0.24091242
   0.82440632  0.60959602  0.26839582
   0.24646920  0.24324675  0.24885075
   0.24483370  0.53676182  0.76242627
   0.25374923  0.74263500  0.74665045
   0.32470291  0.67137975  0.74119606
   0.67591203  0.10897029  0.77083670
   0.82605078  0.17324991  0.74249317
   0.25492551  0.03625311  0.26112866
   0.55711109  0.49651373  0.04843869
   0.44306179  0.28392264  0.46585930
   0.37139286  0.47031973  0.94059621
   0.12776463  0.80892496  0.56982328
   0.05799975  0.99646518  0.04352019
   0.37204335  0.30879691  0.07434079
   0.87179396  0.97166697  0.93700352
   0.94162536  0.78460410  0.46196573
   0.12898684  0.97041593  0.43698864
   0.62790986  0.47160527  0.43965823
   0.55821841  0.28411330  0.96724952
   0.94313431  0.99680665  0.54424241
   0.62897578  0.31050922  0.57338095
   0.44194830  0.49624333  0.54784852
   0.05695941  0.78413715  0.96109261
   0.87100018  0.81091069  0.06866624
   0.93863729  0.93669047  0.14598632
   0.96140998  0.94501450  0.33636295
   0.93799976  0.84520719  0.85883845
   0.56137170  0.43639070  0.65014374
   0.53936251  0.33607103  0.17383050
   0.03863218  0.83596869  0.16875726
   0.53878325  0.44463384  0.84103691
   0.56194762  0.34479026  0.36384869
   0.46071623  0.44429594  0.34109955
   0.06122363  0.84417561  0.35965076
   0.03928888  0.94460300  0.83644980
   0.46140205  0.33568094  0.67377291
   0.96053565  0.83652296  0.66860757
   0.06193579  0.93598405  0.64627944
   0.43873882  0.34391633  0.86455537
   0.43819489  0.43571995  0.15072744
   0.85027790  0.04100909  0.24556857
   0.84870548  0.74125001  0.76248439
   0.64956850  0.54103564  0.74741396
   0.65122946  0.24088866  0.26660864
   0.14947529  0.73961088  0.26187884
   0.34918675  0.53987537  0.24736647
   0.15106275  0.03991093  0.74438129
   0.35033550  0.23959488  0.76551970
   0.82515450  0.99651708  0.60044317
   0.87464641  0.08586125  0.89009409
   0.87333530  0.69668320  0.11792532
   0.62508250  0.58551444  0.39169383
   0.62706519  0.19625645  0.62252793
   0.17510680  0.78403445  0.90758077
   0.67500455  0.49679138  0.10214189
   0.67647903  0.28548226  0.91203701
   0.32391194  0.49571583  0.60250839
   0.12484324  0.69502263  0.61735963
   0.12690719  0.08468839  0.38863855
   0.37470319  0.19467011  0.12071905
   0.82310261  0.78566194  0.40818714
   0.17633292  0.99517351  0.09866720
   0.32502108  0.28432249  0.41129684
   0.37364820  0.58433371  0.89145981
 
 position of ions in cartesian coordinates  (Angst):
  21.68753704 24.84748350  4.26884743
  22.58213146 25.38135316  6.24472615
  21.66708736 21.31531799  8.82378323
  14.62975540 12.38417101  5.46104251
  13.76675944  7.67064900  1.85560997
   1.63147649 20.43395215  3.74033931
  13.74326507 12.91546440  7.44140907
  14.65371290  8.22065183  3.83065121
  10.45200377 12.59019491  4.34027215
   2.51850426 20.96356392  5.72076949
   1.65663635 25.68015372  9.33284617
  10.47570077  7.96937842  4.94613341
  22.55140715 20.76629520  6.84733514
   2.54558869 25.13440546  7.35766961
   9.58620875  8.50015820  6.92532443
   9.56738052 12.04590675  2.36263416
  19.81068502  1.16889722  2.87004670
  20.47870448  2.18408152  0.66307716
  20.44234670 18.43670700  8.60393188
  15.83773877 15.26806896  5.68894428
  15.88423647  5.34230031  3.60512565
   4.40495608 19.09118421  3.28532375
  16.51222989 14.26165507  7.89788877
  16.55093753  6.35628365  1.39722776
   7.67190634 13.91809754  4.79380957
   3.72790612 18.08131280  5.49186463
   3.77295079  2.46550278  3.74355662
   8.37265368  5.61653229  6.68541098
  19.76459506 19.44647758  6.39707768
   4.44086437  1.44807794  5.95009732
   7.70193491  6.63594412  4.48148167
   8.34325321 14.92319460  2.58291355
  18.79598873  2.23298392  3.02314647
  19.48753146  3.25850402  0.88946104
  19.44656550 17.36465765  8.38731652
  16.82892155 16.34394390  5.90850605
  16.87781293  4.26997432  3.38080047
   5.42136281 18.02771734  3.13987784
  17.52672931 15.32691122  8.04397529
  17.56879041  5.29502292  1.24656523
   6.65074387 14.97746367  4.93597510
   4.72353100 17.00938317  5.27494038
   4.76658375  3.53758468  3.96946361
   7.37857919  4.54467063  6.46020958
  18.74797425 18.38290118  6.25264954
   5.45769451  2.51011706  6.10260579
   6.68621673  5.57293856  4.32817269
   7.34647111 15.99417084  2.79941456
  17.96413222  2.23649273  4.14160637
  19.35699011  4.90696362  6.14773760
  19.31439878 15.72151414  3.13496890
  16.95866437 17.36337847  4.96693965
  17.01188574  3.24827780  4.31925392
   6.25933562 18.64654929  8.22018183
  18.36105699 14.70945164  2.96454833
  18.40417814  5.91833584  6.32487386
   5.81311898 14.98268429  6.05003063
   4.85600143 15.99176089  6.21800001
   4.90007333  4.56072825  3.03248910
   7.24319067  2.89707722  1.20246603
  17.91132661 18.37615644  5.13787043
   6.28939832  1.88660942  1.02495706
   5.85299922  5.57183504  3.21071401
   7.21478548 17.63617593  8.05091466
  21.55952494  0.17645028  1.50823903
  21.52798208 20.43453079  7.74344192
  14.76087921 13.26260269  6.54456594
  14.79126377  7.33917782  2.75052163
   2.64956638 20.08610591  4.63649307
   9.43046343 12.92640813  3.44370444
   2.68218337  0.46566915  4.59420235
   9.45527087  7.62359307  5.84034129
  18.66802696  3.24859139  2.04472128
  18.62319193 17.37062006  7.23489138
  17.65149120 16.33892642  7.06149879
  17.69669129  4.27942321  2.22498027
   5.54777242 17.01658874  4.12307156
   6.52297884 15.98767531  3.95186866
   5.58596813  3.52637027  5.12486494
   6.55839459  4.55627081  5.30545243
  23.84658964 22.75626722  3.44528784
   0.36747410 23.06260480  6.53812813
  12.47391072 10.28962993  4.64570386
  11.74209273  9.96925508  1.54890559
   7.88902461  2.91286602  2.08008243
  18.24704255 13.91529302  3.70176674
  18.28908248  6.71592484  5.59167185
  18.08067524  1.43983066  4.87567447
  18.02405049 19.17095875  4.40117374
  16.31106179 17.34272571  4.09062824
   4.20673662 16.01078555  7.09306810
   4.25452539  4.54464233  2.15471805
  19.96228159 15.74205090  4.01102280
   5.96820313  6.37014376  2.47826201
   5.92901994 14.19005072  6.78851812
   6.14471875 19.43997924  7.48243841
   7.86286300 17.61608614  7.17503369
  16.36763473  3.26575746  5.19796507
  20.00305288  4.89028960  5.27032075
   6.17314768  1.08940098  1.75845419
  13.48972338 12.71549832  2.21214934
  10.72879983  7.54497123  3.98008797
   8.99384197 12.60388671  7.63748671
   3.09381125 21.02309557  6.64120652
   1.40368329 25.48557095  4.10144329
   9.00861943  7.93578512  1.64985547
  21.11030225 25.41036047  9.54558421
  22.80076596 20.33424745  5.88375192
   3.12310809 25.06595667  6.43923779
  15.20458445 12.32362399  4.54039706
  13.51787568  7.86319892  7.08759764
  22.83723924 25.80716610  7.20941810
  15.23069380  8.29140751  4.74939802
  10.70177245 13.02072909  5.30441393
   1.37982981 20.63434746  8.96948671
  21.09010461 20.76054188  3.54799546
  22.72788804 24.02236873  4.51099465
  23.27954859 24.35401949  5.72252754
  22.71343132 22.13062058  8.57543495
  13.59370508 11.55549637  5.70862905
  13.06024168  8.69476895  2.37195318
   0.93499863 21.46337074  4.26007318
  13.04697784 11.88540716  6.92281384
  13.60735934  9.03629223  3.58278402
  11.15600310 11.56432263  3.82393244
   1.48227148 21.79235239  5.47435686
   0.95166337 24.65613955  8.81422692
  11.17311988  8.99727123  5.46725131
  23.25888709 21.78985466  7.36365686
   1.49980741 24.31707894  7.60307532
  10.62458196  9.32691491  6.68072006
  10.61042894 11.22623744  2.61146015
  20.58916898  1.20113265  1.68345586
  20.55119263 19.41443839  7.57831525
  15.72936973 14.28982273  6.71406329
  15.76921636  6.32096051  2.58132231
   3.61918313 19.05974613  4.46704495
   8.45519853 13.94767839  3.61017578
   3.65879533  1.48489341  4.76578640
   8.48391398  6.59974986  5.66559135
  19.98051194 25.83490361  7.55585890
  21.18002006  2.74986976  5.84896096
  21.14680171 17.87296607  3.41395554
  15.13596981 15.20387644  4.68123119
  15.18458409  5.40311636  4.61454424
   4.24061891 20.59826861  8.63819669
  16.34449982 12.75614572  2.54653099
  16.38140308  7.86365607  6.75143107
   7.84367387 13.04142451  5.64039347
   3.02322334 18.14275104  6.49771686
   3.07339650  2.40656334  2.73396433
   9.07317589  5.04898123  1.49835732
  19.93075039 20.32767280  5.55403500
   4.26911013 25.48702659  4.43873763
   7.87045636  7.52109596  3.64298737
   9.04829983 15.48608388  7.77148967
 


--------------------------------------------------------------------------------------------------------


 k-point  1 :   0.0000 0.0000 0.0000  plane waves:  126013
 k-point  2 :  -0.0000 0.0000 0.2500  plane waves:  125954
 k-point  3 :  -0.0000 0.0000 0.5000  plane waves:  125894

 maximum and minimum number of plane-waves per node :     31582    31428

 maximum number of plane-waves:    126013
 maximum index in each direction: 
   IXMAX=   48   IYMAX=   51   IZMAX=   12
   IXMIN=  -48   IYMIN=  -51   IZMIN=  -12


 real space projection operators:
  total allocation   :      13042.32 KBytes
  max/ min on nodes  :       3298.20       3221.05


 parallel 3D FFT for wavefunctions:
    minimum data exchange during FFTs selected (reduces bandwidth)
 parallel 3D FFT for charge:
    minimum data exchange during FFTs selected (reduces bandwidth)


 total amount of memory used by VASP MPI-rank0   112832. kBytes
=======================================================================

   base      :      30000. kBytes
   nonlr-proj:       7156. kBytes
   fftplans  :      10015. kBytes
   grid      :      27806. kBytes
   one-center:       1213. kBytes
   wavefun   :      36642. kBytes
 
     INWAV:  cpu time    0.0002: real time    0.0001
 Broyden mixing: mesh for mixing (old mesh)
   NGX = 97   NGY =103   NGZ = 25
  (NGX  =300   NGY  =320   NGZ  = 80)
  gives a total of 249775 points

 initial charge density was supplied:
 charge density of overlapping atoms calculated
 number of electron     600.0000000 magnetization       0.0000000
 keeping initial charge density in first step


--------------------------------------------------------------------------------------------------------


 Maximum index for non-local projection operator          746
 Maximum index for augmentation-charges          457 (set IRDMAX)


--------------------------------------------------------------------------------------------------------


 First call to EWALD:  gamma=   0.114
 Maximum number of real-space cells 2x 2x 6
 Maximum number of reciprocal cells 4x 4x 1

    FEWALD:  cpu time    0.0909: real time    0.0910


--------------------------------------- Iteration      1(   1)  ---------------------------------------


    POTLOK:  cpu time    0.4000: real time    0.4397
    SETDIJ:  cpu time    0.0799: real time    0.0800
     EDDAV:  cpu time   16.8318: real time   16.9805
       DOS:  cpu time    0.0084: real time    0.0092
    --------------------------------------------
      LOOP:  cpu time   17.3202: real time   17.5095

 eigenvalue-minimisations  :  4608
 total energy-change (2. order) : 0.5527773E+04  (-0.2685780E+05)
 number of electron     600.0000000 magnetization       0.0000000
 augmentation part      600.0000000 magnetization       0.0000000

 Free energy of the ion-electron system (eV)
  ---------------------------------------------------
  alpha Z        PSCENC =       469.61630719
  Ewald energy   TEWEN  =     41873.49015815
  -Hartree energ DENC   =    -65037.02190165
  -exchange      EXHF   =         0.00000000
  -V(xc)+E(xc)   XCENC  =      2064.73741753
  PAW double counting   =     21422.65208726   -21556.96843230
  entropy T*S    EENTRO =        -0.04306161
  eigenvalues    EBANDS =     -1524.29406926
  atomic energy  EATOM  =     27815.60422923
  Solvation  Ediel_sol  =         0.00000000
  ---------------------------------------------------
  free energy    TOTEN  =      5527.77273453 eV

  energy without entropy =     5527.81579614  energy(sigma->0) =     5527.79426534


--------------------------------------------------------------------------------------------------------




--------------------------------------- Iteration      1(   2)  ---------------------------------------


     EDDAV:  cpu time   22.4860: real time   22.5010
       DOS:  cpu time    0.0048: real time    0.0048
    --------------------------------------------
      LOOP:  cpu time   22.4908: real time   22.5058

 eigenvalue-minimisations  :  6528
 total energy-change (2. order) :-0.5815305E+04  (-0.5609256E+04)
 number of electron     600.0000000 magnetization       0.0000000
 augmentation part      600.0000000 magnetization       0.0000000

 Free energy of the ion-electron system (eV)
  ---------------------------------------------------
  alpha Z        PSCENC =       469.61630719
  Ewald energy   TEWEN  =     41873.49015815
  -Hartree energ DENC   =    -65037.02190165
  -exchange      EXHF   =         0.00000000
  -V(xc)+E(xc)   XCENC  =      2064.73741753
  PAW double counting   =     21422.65208726   -21556.96843230
  entropy T*S    EENTRO =        -0.01440673
  eigenvalues    EBANDS =     -7339.62744275
  atomic energy  EATOM  =     27815.60422923
  Solvation  Ediel_sol  =         0.00000000
  ---------------------------------------------------
  free energy    TOTEN  =      -287.53198408 eV

  energy without entropy =     -287.51757735  energy(sigma->0) =     -287.52478071


--------------------------------------------------------------------------------------------------------




--------------------------------------- Iteration      1(   3)  ---------------------------------------


     EDDAV:  cpu time   19.1400: real time   19.1479
       DOS:  cpu time    0.0051: real time    0.0051
    --------------------------------------------
      LOOP:  cpu time   19.1451: real time   19.1530

 eigenvalue-minimisations  :  5440
 total energy-change (2. order) :-0.9701707E+03  (-0.9611078E+03)
 number of electron     600.0000000 magnetization       0.0000000
 augmentation part      600.0000000 magnetization       0.0000000

 Free energy of the ion-electron system (eV)
  ---------------------------------------------------
  alpha Z        PSCENC =       469.61630719
  Ewald energy   TEWEN  =     41873.49015815
  -Hartree energ DENC   =    -65037.02190165
  -exchange      EXHF   =         0.00000000
  -V(xc)+E(xc)   XCENC  =      2064.73741753
  PAW double counting   =     21422.65208726   -21556.96843230
  entropy T*S    EENTRO =        -0.05957595
  eigenvalues    EBANDS =     -8309.75295998
  atomic energy  EATOM  =     27815.60422923
  Solvation  Ediel_sol  =         0.00000000
  ---------------------------------------------------
  free energy    TOTEN  =     -1257.70267052 eV

  energy without entropy =    -1257.64309458  energy(sigma->0) =    -1257.67288255


--------------------------------------------------------------------------------------------------------




--------------------------------------- Iteration      1(   4)  ---------------------------------------


     EDDAV:  cpu time   22.9627: real time   22.9692
       DOS:  cpu time    0.0049: real time    0.0049
    --------------------------------------------
      LOOP:  cpu time   22.9676: real time   22.9741

 eigenvalue-minimisations  :  6816
 total energy-change (2. order) :-0.4187756E+02  (-0.4150277E+02)
 number of electron     600.0000000 magnetization       0.0000000
 augmentation part      600.0000000 magnetization       0.0000000

 Free energy of the ion-electron system (eV)
  ---------------------------------------------------
  alpha Z        PSCENC =       469.61630719
  Ewald energy   TEWEN  =     41873.49015815
  -Hartree energ DENC   =    -65037.02190165
  -exchange      EXHF   =         0.00000000
  -V(xc)+E(xc)   XCENC  =      2064.73741753
  PAW double counting   =     21422.65208726   -21556.96843230
  entropy T*S    EENTRO =        -0.04652789
  eigenvalues    EBANDS =     -8351.64357263
  atomic energy  EATOM  =     27815.60422923
  Solvation  Ediel_sol  =         0.00000000
  ---------------------------------------------------
  free energy    TOTEN  =     -1299.58023512 eV

  energy without entropy =    -1299.53370723  energy(sigma->0) =    -1299.55697118


--------------------------------------------------------------------------------------------------------




--------------------------------------- Iteration      1(   5)  ---------------------------------------


     EDDAV:  cpu time   20.0641: real time   20.0697
       DOS:  cpu time    0.0038: real time    0.0038
    --------------------------------------------
      LOOP:  cpu time   20.0679: real time   20.0735

 eigenvalue-minimisations  :  5888
 total energy-change (2. order) :-0.7849192E+00  (-0.7804787E+00)
 number of electron     600.0000000 magnetization       0.0000000
 augmentation part      600.0000000 magnetization       0.0000000

 Free energy of the ion-electron system (eV)
  ---------------------------------------------------
  alpha Z        PSCENC =       469.61630719
  Ewald energy   TEWEN  =     41873.49015815
  -Hartree energ DENC   =    -65037.02190165
  -exchange      EXHF   =         0.00000000
  -V(xc)+E(xc)   XCENC  =      2064.73741753
  PAW double counting   =     21422.65208726   -21556.96843230
  entropy T*S    EENTRO =        -0.04730413
  eigenvalues    EBANDS =     -8352.42771561
  atomic energy  EATOM  =     27815.60422923
  Solvation  Ediel_sol  =         0.00000000
  ---------------------------------------------------
  free energy    TOTEN  =     -1300.36515434 eV

  energy without entropy =    -1300.31785020  energy(sigma->0) =    -1300.34150227


--------------------------------------------------------------------------------------------------------




--------------------------------------- Iteration      1(   6)  ---------------------------------------


     EDDAV:  cpu time   24.2396: real time   24.2465
       DOS:  cpu time    0.0085: real time    0.0085
    --------------------------------------------
      LOOP:  cpu time   24.2482: real time   24.2550

 eigenvalue-minimisations  :  7200
 total energy-change (2. order) :-0.4801103E-01  (-0.4794148E-01)
 number of electron     600.0000000 magnetization       0.0000000
 augmentation part      600.0000000 magnetization       0.0000000

 Free energy of the ion-electron system (eV)
  ---------------------------------------------------
  alpha Z        PSCENC =       469.61630719
  Ewald energy   TEWEN  =     41873.49015815
  -Hartree energ DENC   =    -65037.02190165
  -exchange      EXHF   =         0.00000000
  -V(xc)+E(xc)   XCENC  =      2064.73741753
  PAW double counting   =     21422.65208726   -21556.96843230
  entropy T*S    EENTRO =        -0.04726309
  eigenvalues    EBANDS =     -8352.47576767
  atomic energy  EATOM  =     27815.60422923
  Solvation  Ediel_sol  =         0.00000000
  ---------------------------------------------------
  free energy    TOTEN  =     -1300.41316537 eV

  energy without entropy =    -1300.36590227  energy(sigma->0) =    -1300.38953382


--------------------------------------------------------------------------------------------------------




--------------------------------------- Iteration      1(   7)  ---------------------------------------


     EDDAV:  cpu time   20.3249: real time   20.3298
       DOS:  cpu time    0.0050: real time    0.0050
    --------------------------------------------
      LOOP:  cpu time   20.3299: real time   20.3348

 eigenvalue-minimisations  :  5920
 total energy-change (2. order) :-0.7720803E-03  (-0.7704570E-03)
 number of electron     600.0000000 magnetization       0.0000000
 augmentation part      600.0000000 magnetization       0.0000000

 Free energy of the ion-electron system (eV)
  ---------------------------------------------------
  alpha Z        PSCENC =       469.61630719
  Ewald energy   TEWEN  =     41873.49015815
  -Hartree energ DENC   =    -65037.02190165
  -exchange      EXHF   =         0.00000000
  -V(xc)+E(xc)   XCENC  =      2064.73741753
  PAW double counting   =     21422.65208726   -21556.96843230
  entropy T*S    EENTRO =        -0.04726710
  eigenvalues    EBANDS =     -8352.47653575
  atomic energy  EATOM  =     27815.60422923
  Solvation  Ediel_sol  =         0.00000000
  ---------------------------------------------------
  free energy    TOTEN  =     -1300.41393745 eV

  energy without entropy =    -1300.36667035  energy(sigma->0) =    -1300.39030390


--------------------------------------------------------------------------------------------------------




--------------------------------------- Iteration      1(   8)  ---------------------------------------


     EDDAV:  cpu time   23.3020: real time   23.3051
       DOS:  cpu time    0.0047: real time    0.0047
    CHARGE:  cpu time    0.8878: real time    0.8909
    MIXING:  cpu time    0.0145: real time    0.0164
    --------------------------------------------
      LOOP:  cpu time   24.2089: real time   24.2171

 eigenvalue-minimisations  :  7168
 total energy-change (2. order) :-0.3434766E-04  (-0.3432929E-04)
 number of electron     600.0000034 magnetization       0.0000000
 augmentation part       32.6346451 magnetization      -0.0005572

 Broyden mixing:
  rms(total) = 0.94907E+01    rms(broyden)= 0.94902E+01
  rms(prec ) = 0.10433E+02
  weight for this iteration     100.00

 Free energy of the ion-electron system (eV)
  ---------------------------------------------------
  alpha Z        PSCENC =       469.61630719
  Ewald energy   TEWEN  =     41873.49015815
  -Hartree energ DENC   =    -65037.02190165
  -exchange      EXHF   =         0.00000000
  -V(xc)+E(xc)   XCENC  =      2064.73741753
  PAW double counting   =     21422.65208726   -21556.96843230
  entropy T*S    EENTRO =        -0.04726710
  eigenvalues    EBANDS =     -8352.47657010
  atomic energy  EATOM  =     27815.60422923
  Solvation  Ediel_sol  =         0.00000000
  ---------------------------------------------------
  free energy    TOTEN  =     -1300.41397180 eV

  energy without entropy =    -1300.36670470  energy(sigma->0) =    -1300.39033825


--------------------------------------------------------------------------------------------------------




--------------------------------------- Iteration      1(   9)  ---------------------------------------


    POTLOK:  cpu time    0.3623: real time    0.3624
    SETDIJ:  cpu time    0.0617: real time    0.0617
     EDDAV:  cpu time   24.7021: real time   24.7080
       DOS:  cpu time    0.0039: real time    0.0039
    CHARGE:  cpu time    0.8597: real time    0.8639
    MIXING:  cpu time    0.0148: real time    0.0243
    --------------------------------------------
      LOOP:  cpu time   26.0045: real time   26.0241

 eigenvalue-minimisations  :  7424
 total energy-change (2. order) :-0.3230874E+03  (-0.3928220E+03)
 number of electron     600.0000015 magnetization       0.0000000
 augmentation part       55.6807310 magnetization      -0.0033175

 Broyden mixing:
  rms(total) = 0.33008E+02    rms(broyden)= 0.33008E+02
  rms(prec ) = 0.33487E+02
  weight for this iteration     100.00

 eigenvalues of (default mixing * dielectric matrix)
  average eigenvalue GAMMA=   0.0850
  0.0850

 Free energy of the ion-electron system (eV)
  ---------------------------------------------------
  alpha Z        PSCENC =       469.61630719
[...]
     15.20458     12.32362      4.54040         0.000642      0.001039     -0.001354
     13.51788      7.86320      7.08760        -0.001355     -0.003126     -0.004784
     22.83724     25.80717      7.20942         0.002688      0.003184      0.005983
     15.23069      8.29141      4.74940        -0.002201     -0.000027     -0.002242
     10.70177     13.02073      5.30441         0.001567      0.002030      0.002904
      1.37983     20.63435      8.96949         0.000302     -0.002985     -0.000834
     21.09010     20.76054      3.54800        -0.002021      0.000578      0.003753
     22.72789     24.02237      4.51099         0.001394     -0.001001     -0.001849
     23.27955     24.35402      5.72253         0.000563      0.000879     -0.000704
     22.71343     22.13062      8.57543         0.002753      0.002661      0.001315
     13.59371     11.55550      5.70863        -0.001202      0.000162      0.001581
     13.06024      8.69477      2.37195         0.001135     -0.001207      0.000592
      0.93500     21.46337      4.26007        -0.000577     -0.000220      0.002069
     13.04698     11.88541      6.92281        -0.004237     -0.000134      0.000833
     13.60736      9.03629      3.58278        -0.000995      0.000978      0.001401
     11.15600     11.56432      3.82393        -0.000486      0.002236     -0.001881
      1.48227     21.79235      5.47436        -0.001150      0.002559      0.001493
      0.95166     24.65614      8.81423         0.000955      0.000741     -0.001497
     11.17312      8.99727      5.46725        -0.000480     -0.001879      0.002317
     23.25889     21.78985      7.36366         0.001666      0.001017      0.001344
      1.49981     24.31708      7.60308        -0.000892     -0.000464     -0.001306
     10.62458      9.32691      6.68072         0.003446      0.004045      0.002750
     10.61043     11.22624      2.61146         0.001386     -0.002471     -0.004802
     20.58917      1.20113      1.68346         0.001435      0.004587     -0.000853
     20.55119     19.41444      7.57832        -0.000709     -0.002755     -0.000540
     15.72937     14.28982      6.71406         0.002460      0.004138     -0.000405
     15.76922      6.32096      2.58132        -0.002207     -0.001379     -0.000503
      3.61918     19.05975      4.46704        -0.000850     -0.000188     -0.000182
      8.45520     13.94768      3.61018         0.000257      0.000997     -0.001830
      3.65880      1.48489      4.76579         0.000664      0.002455     -0.000575
      8.48391      6.59975      5.66559        -0.001555     -0.000884     -0.001032
     19.98051     25.83490      7.55586         0.000890     -0.001744     -0.000668
     21.18002      2.74987      5.84896        -0.001383      0.000547     -0.002061
     21.14680     17.87297      3.41396        -0.002902     -0.002189      0.001396
     15.13597     15.20388      4.68123         0.000886      0.002492     -0.003689
     15.18458      5.40312      4.61454         0.000460     -0.003675     -0.001487
      4.24062     20.59827      8.63820        -0.000717      0.000240     -0.003874
     16.34450     12.75615      2.54653        -0.004381      0.002265      0.000394
     16.38140      7.86366      6.75143        -0.003523     -0.001952     -0.004920
      7.84367     13.04142      5.64039        -0.001245     -0.002400      0.000885
      3.02322     18.14275      6.49772         0.001684     -0.000256      0.002762
      3.07340      2.40656      2.73396        -0.000529      0.001717     -0.002371
      9.07318      5.04898      1.49836         0.001361     -0.001205      0.004984
     19.93075     20.32767      5.55403         0.003217     -0.003707     -0.004601
      4.26911     25.48703      4.43874        -0.003568     -0.000560      0.005429
      7.87046      7.52110      3.64299         0.001411      0.004561     -0.003105
      9.04830     15.48608      7.77149        -0.002413      0.003318      0.000697
 -----------------------------------------------------------------------------------
    total drift:                                0.008751     -0.005019      0.003647


--------------------------------------------------------------------------------------------------------



  FREE ENERGIE OF THE ION-ELECTRON SYSTEM (eV)
  ---------------------------------------------------
  free  energy   TOTEN  =     -1185.78013105 eV

  energy  without entropy=    -1185.73938765  energy(sigma->0) =    -1185.75975935
 


--------------------------------------------------------------------------------------------------------


    POTLOK:  cpu time    0.5408: real time    0.5408


--------------------------------------------------------------------------------------------------------




--------------------------------------------------------------------------------------------------------


  
 reached required accuracy - stopping structural energy minimisation
 writing wavefunctions
     LOOP+:  cpu time 1778.1590: real time 1787.8164
    4ORBIT:  cpu time    0.0000: real time    0.0000
 


 total charge     
 
# of ion       s       p       d       tot
------------------------------------------
    1        0.869   1.766   0.000   2.635
    2        0.868   1.770   0.000   2.639
    3        0.869   1.766   0.000   2.635
    4        0.869   1.766   0.000   2.635
    5        0.868   1.770   0.000   2.638
    6        0.868   1.770   0.000   2.638
    7        0.868   1.770   0.000   2.638
    8        0.869   1.766   0.000   2.635
    9        0.868   1.770   0.000   2.638
   10        0.869   1.766   0.000   2.635
   11        0.868   1.770   0.000   2.638
   12        0.868   1.770   0.000   2.638
   13        0.868   1.770   0.000   2.638
   14        0.869   1.766   0.000   2.635
   15        0.869   1.766   0.000   2.635
   16        0.869   1.766   0.000   2.635
   17        0.863   1.715   0.000   2.578
   18        0.863   1.716   0.000   2.579
   19        0.863   1.716   0.000   2.580
   20        0.863   1.716   0.000   2.580
   21        0.863   1.717   0.000   2.580
   22        0.863   1.715   0.000   2.578
   23        0.863   1.715   0.000   2.578
   24        0.863   1.715   0.000   2.578
   25        0.863   1.715   0.000   2.578
   26        0.863   1.717   0.000   2.580
   27        0.863   1.716   0.000   2.580
   28        0.863   1.717   0.000   2.580
   29        0.863   1.715   0.000   2.578
   30        0.863   1.715   0.000   2.577
   31        0.863   1.715   0.000   2.578
   32        0.863   1.717   0.000   2.580
   33        0.865   1.785   0.000   2.650
   34        0.865   1.785   0.000   2.650
   35        0.865   1.785   0.000   2.650
   36        0.865   1.785   0.000   2.650
   37        0.865   1.785   0.000   2.650
   38        0.865   1.785   0.000   2.650
   39        0.865   1.785   0.000   2.650
   40        0.865   1.785   0.000   2.650
   41        0.865   1.785   0.000   2.650
   42        0.865   1.785   0.000   2.650
   43        0.865   1.785   0.000   2.650
   44        0.865   1.785   0.000   2.650
   45        0.865   1.785   0.000   2.650
   46        0.865   1.785   0.000   2.650
   47        0.865   1.785   0.000   2.650
   48        0.865   1.785   0.000   2.650
   49        0.870   1.767   0.000   2.637
   50        0.870   1.767   0.000   2.637
   51        0.870   1.767   0.000   2.637
   52        0.870   1.767   0.000   2.637
   53        0.870   1.767   0.000   2.637
   54        0.870   1.767   0.000   2.637
   55        0.870   1.767   0.000   2.637
   56        0.870   1.767   0.000   2.637
   57        0.870   1.767   0.000   2.637
   58        0.870   1.767   0.000   2.637
   59        0.870   1.767   0.000   2.637
   60        0.870   1.767   0.000   2.637
   61        0.870   1.767   0.000   2.637
   62        0.870   1.767   0.000   2.637
   63        0.870   1.767   0.000   2.637
   64        0.870   1.767   0.000   2.637
   65        0.847   1.789   0.000   2.636
   66        0.847   1.789   0.000   2.636
   67        0.847   1.789   0.000   2.636
   68        0.847   1.789   0.000   2.636
   69        0.847   1.789   0.000   2.636
   70        0.847   1.789   0.000   2.636
   71        0.847   1.789   0.000   2.636
   72        0.847   1.789   0.000   2.636
   73        0.865   1.790   0.000   2.655
   74        0.865   1.790   0.000   2.655
   75        0.865   1.790   0.000   2.655
   76        0.865   1.790   0.000   2.655
   77        0.865   1.790   0.000   2.655
   78        0.865   1.790   0.000   2.655
   79        0.865   1.790   0.000   2.655
   80        0.865   1.790   0.000   2.655
   81        0.390   0.503   6.051   6.945
   82        0.390   0.503   6.051   6.944
   83        0.391   0.504   6.051   6.946
   84        0.390   0.503   6.051   6.944
   85        0.638   0.048   0.000   0.686
   86        0.639   0.048   0.000   0.687
   87        0.639   0.048   0.000   0.687
   88        0.639   0.048   0.000   0.687
   89        0.639   0.048   0.000   0.687
   90        0.638   0.048   0.000   0.686
   91        0.638   0.048   0.000   0.686
   92        0.638   0.048   0.000   0.686
   93        0.638   0.048   0.000   0.686
   94        0.639   0.048   0.000   0.687
   95        0.639   0.048   0.000   0.687
   96        0.639   0.048   0.000   0.687
   97        0.638   0.048   0.000   0.686
   98        0.638   0.048   0.000   0.686
   99        0.638   0.048   0.000   0.686
  100        0.639   0.048   0.000   0.687
  101        0.636   0.049   0.000   0.685
  102        0.636   0.049   0.000   0.685
  103        0.628   0.050   0.000   0.679
  104        0.628   0.050   0.000   0.679
  105        0.636   0.049   0.000   0.685
  106        0.628   0.050   0.000   0.679
  107        0.628   0.050   0.000   0.678
  108        0.636   0.049   0.000   0.685
  109        0.628   0.050   0.000   0.679
  110        0.628   0.050   0.000   0.679
  111        0.636   0.049   0.000   0.685
  112        0.637   0.049   0.000   0.685
  113        0.628   0.050   0.000   0.679
  114        0.636   0.049   0.000   0.685
  115        0.636   0.049   0.000   0.685
  116        0.629   0.050   0.000   0.679
  117        1.237   2.610   0.000   3.847
  118        1.238   2.611   0.000   3.849
  119        1.237   2.610   0.000   3.848
  120        1.237   2.610   0.000   3.848
  121        1.238   2.611   0.000   3.849
  122        1.238   2.611   0.000   3.849
  123        1.238   2.611   0.000   3.849
  124        1.237   2.610   0.000   3.848
  125        1.238   2.611   0.000   3.849
  126        1.237   2.610   0.000   3.848
  127        1.238   2.611   0.000   3.849
  128        1.238   2.611   0.000   3.849
  129        1.238   2.611   0.000   3.849
  130        1.237   2.610   0.000   3.847
  131        1.237   2.610   0.000   3.848
  132        1.237   2.610   0.000   3.847
  133        1.211   2.724   0.000   3.934
  134        1.211   2.724   0.000   3.935
  135        1.211   2.724   0.000   3.934
  136        1.211   2.724   0.000   3.935
  137        1.211   2.724   0.000   3.934
  138        1.211   2.724   0.000   3.934
  139        1.211   2.724   0.000   3.934
  140        1.211   2.724   0.000   3.935
  141        1.584   3.542   0.000   5.126
  142        1.585   3.537   0.000   5.122
  143        1.585   3.537   0.000   5.122
  144        1.585   3.537   0.000   5.122
  145        1.585   3.537   0.000   5.122
  146        1.584   3.542   0.000   5.126
  147        1.584   3.542   0.000   5.126
  148        1.584   3.542   0.000   5.126
  149        1.584   3.542   0.000   5.126
  150        1.585   3.537   0.000   5.122
  151        1.585   3.537   0.000   5.122
  152        1.585   3.537   0.000   5.122
  153        1.584   3.542   0.000   5.126
  154        1.584   3.542   0.000   5.126
  155        1.584   3.543   0.000   5.126
  156        1.585   3.536   0.000   5.122
--------------------------------------------------
tot        145.891 264.968  24.203 435.062
 


 magnetization (x)
 
# of ion       s       p       d       tot
------------------------------------------
    1        0.003   0.020   0.000   0.023
    2        0.003   0.022   0.000   0.025
    3        0.003   0.020   0.000   0.023
    4       -0.003  -0.020   0.000  -0.023
    5       -0.003  -0.022   0.000  -0.025
    6        0.003   0.022   0.000   0.025
    7       -0.003  -0.022   0.000  -0.025
    8       -0.003  -0.020   0.000  -0.023
    9       -0.003  -0.022   0.000  -0.025
   10        0.003   0.020   0.000   0.023
   11        0.003   0.022   0.000   0.025
   12       -0.003  -0.022   0.000  -0.025
   13        0.003   0.022   0.000   0.025
   14        0.003   0.020   0.000   0.023
   15       -0.003  -0.020   0.000  -0.023
   16       -0.003  -0.020   0.000  -0.023
   17        0.000   0.001   0.000   0.001
   18        0.000   0.001   0.000   0.001
   19        0.000   0.001   0.000   0.001
   20       -0.000  -0.001   0.000  -0.001
   21       -0.000  -0.001   0.000  -0.001
   22        0.000   0.001   0.000   0.001
   23       -0.000  -0.001   0.000  -0.001
   24       -0.000  -0.001   0.000  -0.001
   25       -0.000  -0.001   0.000  -0.001
   26        0.000   0.001   0.000   0.001
   27        0.000   0.001   0.000   0.001
   28       -0.000  -0.001   0.000  -0.001
   29        0.000   0.001   0.000   0.001
   30        0.000   0.001   0.000   0.001
   31       -0.000  -0.001   0.000  -0.001
   32       -0.000  -0.001   0.000  -0.001
   33       -0.000  -0.000   0.000  -0.000
   34       -0.000  -0.000   0.000  -0.000
   35       -0.000  -0.000   0.000  -0.000
   36        0.000   0.000   0.000   0.000
   37       -0.000  -0.000   0.000  -0.000
   38        0.000   0.000   0.000   0.000
   39        0.000   0.000   0.000   0.000
   40        0.000   0.000   0.000   0.000
   41        0.000   0.001   0.000   0.001
   42        0.000   0.000   0.000   0.000
   43       -0.000  -0.000   0.000  -0.000
   44       -0.000  -0.000   0.000  -0.000
   45       -0.000  -0.000   0.000  -0.000
   46       -0.000  -0.000   0.000  -0.000
   47       -0.000  -0.000   0.000  -0.000
   48        0.000   0.000   0.000   0.001
   49        0.000   0.000   0.000   0.000
   50        0.000   0.000   0.000   0.000
   51        0.000   0.000   0.000   0.000
   52       -0.000  -0.000   0.000  -0.000
   53       -0.000  -0.000   0.000  -0.000
   54        0.000   0.000   0.000   0.000
   55       -0.000  -0.000   0.000  -0.000
   56       -0.000  -0.000   0.000  -0.000
   57       -0.000   0.000   0.000   0.000
   58        0.000   0.000   0.000   0.000
   59        0.000   0.000   0.000   0.000
   60       -0.000  -0.000   0.000  -0.000
   61        0.000   0.000   0.000   0.000
   62        0.000  -0.000   0.000  -0.000
   63       -0.000  -0.000   0.000  -0.000
   64       -0.000   0.000   0.000   0.000
   65        0.002   0.014   0.000   0.016
   66        0.002   0.014   0.000   0.016
   67       -0.002  -0.014   0.000  -0.016
   68       -0.002  -0.014   0.000  -0.016
   69        0.002   0.014   0.000   0.016
   70       -0.002  -0.014   0.000  -0.016
   71        0.002   0.014   0.000   0.016
   72       -0.002  -0.014   0.000  -0.016
   73        0.000   0.000   0.000   0.000
   74        0.000   0.000   0.000   0.000
   75       -0.000  -0.000   0.000  -0.000
   76       -0.000  -0.000   0.000  -0.000
   77        0.000   0.000   0.000   0.000
   78       -0.000  -0.000   0.000  -0.001
   79        0.000   0.000   0.000   0.000
   80       -0.000  -0.000   0.000  -0.000
   81        0.018   0.082   3.397   3.496
   82        0.018   0.082   3.397   3.496
   83       -0.018  -0.082  -3.396  -3.496
   84       -0.018  -0.082  -3.397  -3.496
   85        0.000  -0.000   0.000   0.000
   86        0.000  -0.000   0.000   0.000
   87        0.000  -0.000   0.000   0.000
   88       -0.000   0.000   0.000  -0.000
   89       -0.000   0.000   0.000  -0.000
   90        0.000  -0.000   0.000   0.000
   91       -0.000   0.000   0.000  -0.000
   92       -0.000   0.000   0.000  -0.000
   93       -0.000   0.000   0.000  -0.000
   94        0.000  -0.000   0.000   0.000
   95       -0.000   0.000   0.000  -0.000
   96       -0.000   0.000   0.000  -0.000
   97       -0.000   0.000   0.000  -0.000
   98        0.000  -0.000   0.000   0.000
   99       -0.000   0.000   0.000  -0.000
  100        0.000  -0.000   0.000  -0.000
  101       -0.000  -0.000   0.000  -0.000
  102       -0.000  -0.000   0.000  -0.000
  103       -0.000  -0.000   0.000  -0.000
  104        0.000   0.000   0.000   0.000
  105        0.000   0.000   0.000   0.000
  106       -0.000  -0.000   0.000  -0.000
  107        0.000   0.000   0.000   0.000
  108        0.000   0.000   0.000   0.000
  109        0.000   0.000   0.000   0.000
  110       -0.000  -0.000   0.000  -0.000
  111       -0.000  -0.000   0.000  -0.000
  112        0.000   0.000   0.000   0.000
  113       -0.000  -0.000   0.000  -0.000
  114       -0.000  -0.000   0.000  -0.000
  115        0.000   0.000   0.000   0.000
  116        0.000   0.000   0.000   0.000
  117        0.011   0.039   0.000   0.050
  118        0.013   0.043   0.000   0.056
  119        0.011   0.039   0.000   0.050
  120       -0.011  -0.039   0.000  -0.050
  121       -0.013  -0.043   0.000  -0.056
  122        0.013   0.043   0.000   0.056
  123       -0.013  -0.043   0.000  -0.056
  124       -0.011  -0.039   0.000  -0.050
  125       -0.013  -0.043   0.000  -0.056
  126        0.011   0.039   0.000   0.050
  127        0.013   0.043   0.000   0.056
  128       -0.013  -0.043   0.000  -0.056
  129        0.013   0.043   0.000   0.056
  130        0.011   0.039   0.000   0.050
  131       -0.011  -0.039   0.000  -0.050
  132       -0.011  -0.039   0.000  -0.050
  133        0.000   0.001   0.000   0.001
  134        0.000   0.001   0.000   0.001
  135       -0.000  -0.001   0.000  -0.001
  136       -0.000  -0.001   0.000  -0.001
  137        0.000   0.000   0.000   0.000
  138       -0.000  -0.001   0.000  -0.001
  139        0.000   0.001   0.000   0.001
  140       -0.000  -0.000   0.000  -0.001
  141        0.000   0.001   0.000   0.001
  142        0.000   0.001   0.000   0.001
  143        0.000   0.001   0.000   0.001
  144       -0.000  -0.001   0.000  -0.001
  145       -0.000  -0.002   0.000  -0.002
  146        0.000   0.002   0.000   0.002
  147       -0.000  -0.002   0.000  -0.002
  148       -0.000  -0.002   0.000  -0.002
  149       -0.000  -0.001   0.000  -0.001
  150        0.000   0.002   0.000   0.002
  151        0.000   0.001   0.000   0.001
  152       -0.000  -0.002   0.000  -0.002
  153        0.000   0.002   0.000   0.002
  154        0.000   0.001   0.000   0.001
  155       -0.000  -0.002   0.000  -0.002
  156       -0.000  -0.001   0.000  -0.001
--------------------------------------------------
tot         -0.000  -0.000   0.000  -0.000
 

 total amount of memory used by VASP MPI-rank0   112832. kBytes
=======================================================================

   base      :      30000. kBytes
   nonlr-proj:       7156. kBytes
   fftplans  :      10015. kBytes
   grid      :      27806. kBytes
   one-center:       1213. kBytes
   wavefun   :      36642. kBytes
 
  
  
 General timing and accounting informations for this job:
 ========================================================
  
                  Total CPU time used (sec):     1996.137
                            User time (sec):     1862.738
                          System time (sec):      133.399
                         Elapsed time (sec):     2014.822
  
                   Maximum memory used (kb):     1003704.
                   Average memory used (kb):           0.
  
                          Minor page faults:       102715
                          Major page faults:            4
                 Voluntary context switches:        41798
