       N       E                     dE             d eps       ncg     rms          rms(c)
RMM:   1     0.868310212369E+04    0.86831E+04   -0.20908E+05   800   0.121E+03
RMM:   2     0.335807009009E+04   -0.53250E+04   -0.66791E+04   800   0.271E+02
RMM:   3     0.132358574838E+04   -0.20345E+04   -0.29993E+04   800   0.179E+02
RMM:   4    -0.199129280020E+03   -0.15227E+04   -0.15460E+04   800   0.155E+02
RMM:   5    -0.881508477105E+03   -0.68238E+03   -0.60780E+03   800   0.104E+02
RMM:   6    -0.113148080344E+04   -0.24997E+03   -0.21748E+03   800   0.659E+01
RMM:   7    -0.120041186387E+04   -0.68931E+02   -0.64675E+02   800   0.369E+01
RMM:   8    -0.122603148900E+04   -0.25620E+02   -0.21840E+02   800   0.221E+01
RMM:   9    -0.123936231628E+04   -0.13331E+02   -0.12773E+02  1835   0.128E+01
RMM:  10    -0.124049198825E+04   -0.11297E+01   -0.10757E+01  2170   0.401E+00
RMM:  11    -0.124054984276E+04   -0.57855E-01   -0.45431E-01  1885   0.787E-01
RMM:  12    -0.124055392297E+04   -0.40802E-02   -0.38393E-02  2155   0.235E-01    0.572E+01
RMM:  13    -0.116884464975E+04    0.71709E+02   -0.16485E+02  1600   0.163E+01    0.317E+01
RMM:  14    -0.115375160499E+04    0.15093E+02   -0.44162E+01  1600   0.842E+00    0.147E+01
RMM:  15    -0.115200473124E+04    0.17469E+01   -0.10637E+01  1600   0.447E+00    0.490E+00
RMM:  16    -0.115175731744E+04    0.24741E+00   -0.87308E-01  1640   0.143E+00    0.145E+00
RMM:  17    -0.115172565267E+04    0.31665E-01   -0.17107E-01  1623   0.666E-01    0.524E-01
RMM:  18    -0.115172037068E+04    0.52820E-02   -0.53015E-02  1608   0.297E-01    0.295E-01
RMM:  19    -0.115172414905E+04   -0.37784E-02   -0.11534E-02  1608   0.155E-01    0.155E-01
RMM:  20    -0.115173475892E+04   -0.10610E-01   -0.10672E-02  1600   0.125E-01    0.116E-01
RMM:  21    -0.115174075862E+04   -0.59997E-02   -0.72491E-03  1600   0.915E-02    0.865E-02
RMM:  22    -0.115174571522E+04   -0.49566E-02   -0.21329E-03  1600   0.598E-02    0.360E-02
RMM:  23    -0.115174902365E+04   -0.33084E-02   -0.37095E-04  1639   0.256E-02    0.271E-02
RMM:  24    -0.115175294399E+04   -0.39203E-02   -0.43468E-04  1600   0.237E-02    0.182E-02
RMM:  25    -0.115175514408E+04   -0.22001E-02   -0.27200E-04  1600   0.173E-02    0.118E-02
RMM:  26    -0.115175636388E+04   -0.12198E-02   -0.10045E-04  1517   0.940E-03    0.503E-03
RMM:  27    -0.115175682080E+04   -0.45692E-03   -0.27665E-05  1441   0.502E-03    0.442E-03
RMM:  28    -0.115175706871E+04   -0.24791E-03   -0.11499E-05  1346   0.384E-03    0.150E-03
RMM:  29    -0.115175714706E+04   -0.78353E-04   -0.32831E-06  1117   0.204E-03    0.924E-04
RMM:  30    -0.115175716951E+04   -0.22452E-04   -0.86119E-07  1003   0.116E-03    0.711E-04
RMM:  31    -0.115175717543E+04   -0.59130E-05   -0.34262E-07   891   0.762E-04    0.367E-04
RMM:  32    -0.115175717783E+04   -0.24063E-05   -0.18954E-07   813   0.599E-04    0.359E-04
RMM:  33    -0.115175717841E+04   -0.57730E-06   -0.80530E-08   653   0.416E-04
   1 F= -.11612994E+04 E0= -.11612994E+04  d E =-.116130E+04
