 vasp.6.0.8 29Jun18 (build Mar 14 2019 11:44:20) complex                        
  
 executed on             LinuxIFC date 2021.01.19  15:58:19
 running   64 mpi-ranks, with    1 threads/rank
 distrk:  each k-point on   64 cores,    1 groups
 distr:  one band on NCORES_PER_BAND=   4 cores,   16 groups


--------------------------------------------------------------------------------------------------------


 INCAR:
 POTCAR:    PAW_PBE C 08Apr2002                   
 POTCAR:    PAW_PBE Zn 06Sep2000                  
 POTCAR:    PAW_PBE H 15Jun2001                   
 POTCAR:    PAW_PBE N 08Apr2002                   
 POTCAR:    PAW_PBE O 08Apr2002                   
 POTCAR:    PAW_PBE C 08Apr2002                   
   VRHFIN =C: s2p2                                                              
   LEXCH  = PE                                                                  
   EATOM  =   147.1560 eV,   10.8157 Ry                                         
                                                                                
   TITEL  = PAW_PBE C 08Apr2002                                                 
   LULTRA =        F    use ultrasoft PP ?                                      
   IUNSCR =        1    unscreen: 0-lin 1-nonlin 2-no                           
   RPACOR =    1.200    partial core radius                                     
   POMASS =   12.011; ZVAL   =    4.000    mass and valenz                      
   RCORE  =    1.500    outmost cutoff radius                                   
   RWIGS  =    1.630; RWIGS  =    0.863    wigner-seitz radius (au A)           
   ENMAX  =  400.000; ENMIN  =  300.000 eV                                      
   ICORE  =        2    local potential                                         
   LCOR   =        T    correct aug charges                                     
   LPAW   =        T    paw PP                                                  
   EAUG   =  644.873                                                            
   DEXC   =    0.000                                                            
   RMAX   =    1.529    core radius for proj-oper                               
   RAUG   =    1.300    factor for augmentation sphere                          
   RDEP   =    1.501    radius for radial grids                                 
   RDEPT  =    1.300    core radius for aug-charge                              
                                                                                
   Atomic configuration                                                         
    4 entries                                                                   
     n  l   j            E        occ.                                          
     1  0  0.50      -273.3789   2.0000                                         
     2  0  0.50       -13.7508   2.0000                                         
     2  1  0.50        -5.2854   2.0000                                         
     3  2  1.50        -5.4423   0.0000                                         
   Description                                                                  
     l       E           TYP  RCUT    TYP  RCUT                                 
     0    -13.7508458     23  1.200                                             
     0     -8.2022199     23  1.200                                             
     1     -5.2854383     23  1.500                                             
     1     34.0145650     23  1.500                                             
     2     -5.4423304      7  1.500                                             
  local pseudopotential read in
  partial core-charges read in
  partial kinetic energy density read in
  atomic valenz-charges read in
  non local Contribution for L=           0  read in
    real space projection operators read in
  non local Contribution for L=           0  read in
    real space projection operators read in
  non local Contribution for L=           1  read in
    real space projection operators read in
  non local Contribution for L=           1  read in
    real space projection operators read in
    PAW grid and wavefunctions read in
 
   number of l-projection  operators is LMAX  =           4
   number of lm-projection operators is LMMAX =           8
 
 POTCAR:    PAW_PBE Zn 06Sep2000                  
   VRHFIN =Zn: d10 p2                                                           
   LEXCH  = PE                                                                  
   EATOM  =  1748.8345 eV,  128.5357 Ry                                         
                                                                                
   TITEL  = PAW_PBE Zn 06Sep2000                                                
   LULTRA =        F    use ultrasoft PP ?                                      
   IUNSCR =        1    unscreen: 0-lin 1-nonlin 2-no                           
   RPACOR =    2.000    partial core radius                                     
   POMASS =   65.390; ZVAL   =   12.000    mass and valenz                      
   RCORE  =    2.300    outmost cutoff radius                                   
   RWIGS  =    2.400; RWIGS  =    1.270    wigner-seitz radius (au A)           
   ENMAX  =  276.723; ENMIN  =  207.542 eV                                      
   RCLOC  =    1.828    cutoff for local pot                                    
   LCOR   =        T    correct aug charges                                     
   LPAW   =        T    paw PP                                                  
   EAUG   =  575.892                                                            
   DEXC   =    0.000                                                            
   RMAX   =    2.347    core radius for proj-oper                               
   RAUG   =    1.300    factor for augmentation sphere                          
   RDEP   =    2.324    radius for radial grids                                 
   RDEPT  =    1.788    core radius for aug-charge                              
                                                                                
   Atomic configuration                                                         
    9 entries                                                                   
     n  l   j            E        occ.                                          
     1  0  0.50     -9524.6913   2.0000                                         
     2  0  0.50     -1158.1882   2.0000                                         
     2  1  1.50     -1003.8506   6.0000                                         
     3  0  0.50      -129.2194   2.0000                                         
     3  1  1.50       -83.3890   6.0000                                         
     3  2  2.50       -10.1410  10.0000                                         
     4  0  0.50        -5.9785   2.0000                                         
     4  1  0.50        -4.0817   0.0000                                         
     4  3  2.50        -1.3606   0.0000                                         
   Description                                                                  
     l       E           TYP  RCUT    TYP  RCUT                                 
     2    -10.1410010     23  2.300                                             
     2    -11.5015836     23  2.300                                             
     0     -5.9785163     23  2.300                                             
     0      1.1858015     23  2.300                                             
     1     -2.7211652     23  2.300                                             
     1     13.2444212     23  2.300                                             
  local pseudopotential read in
  partial core-charges read in
  partial kinetic energy density read in
  atomic valenz-charges read in
  non local Contribution for L=           2  read in
    real space projection operators read in
  non local Contribution for L=           2  read in
    real space projection operators read in
  non local Contribution for L=           0  read in
    real space projection operators read in
  non local Contribution for L=           0  read in
    real space projection operators read in
  non local Contribution for L=           1  read in
    real space projection operators read in
  non local Contribution for L=           1  read in
    real space projection operators read in
    PAW grid and wavefunctions read in
 
   number of l-projection  operators is LMAX  =           6
   number of lm-projection operators is LMMAX =          18
 
 POTCAR:    PAW_PBE H 15Jun2001                   
   VRHFIN =H: ultrasoft test                                                    
   LEXCH  = PE                                                                  
   EATOM  =    12.4884 eV,    0.9179 Ry                                         
                                                                                
   TITEL  = PAW_PBE H 15Jun2001                                                 
   LULTRA =        F    use ultrasoft PP ?                                      
   IUNSCR =        0    unscreen: 0-lin 1-nonlin 2-no                           
   RPACOR =    0.000    partial core radius                                     
   POMASS =    1.000; ZVAL   =    1.000    mass and valenz                      
   RCORE  =    1.100    outmost cutoff radius                                   
   RWIGS  =    0.700; RWIGS  =    0.370    wigner-seitz radius (au A)           
   ENMAX  =  250.000; ENMIN  =  200.000 eV                                      
   RCLOC  =    0.701    cutoff for local pot                                    
   LCOR   =        T    correct aug charges                                     
   LPAW   =        T    paw PP                                                  
   EAUG   =  400.000                                                            
   RMAX   =    1.123    core radius for proj-oper                               
   RAUG   =    1.200    factor for augmentation sphere                          
   RDEP   =    1.112    radius for radial grids                                 
   RDEPT  =    0.926    core radius for aug-charge                              
                                                                                
   Atomic configuration                                                         
    2 entries                                                                   
     n  l   j            E        occ.                                          
     1  0  0.50        -6.4927   1.0000                                         
     2  1  0.50        -3.4015   0.0000                                         
   Description                                                                  
     l       E           TYP  RCUT    TYP  RCUT                                 
     0     -6.4927494     23  1.100                                             
     0      6.8029130     23  1.100                                             
     1     -4.0817478     23  1.100                                             
  local pseudopotential read in
  atomic valenz-charges read in
  non local Contribution for L=           0  read in
    real space projection operators read in
  non local Contribution for L=           0  read in
    real space projection operators read in
  non local Contribution for L=           1  read in
    real space projection operators read in
    PAW grid and wavefunctions read in
 
   number of l-projection  operators is LMAX  =           3
   number of lm-projection operators is LMMAX =           5
 
 POTCAR:    PAW_PBE N 08Apr2002                   
   VRHFIN =N: s2p3                                                              
   LEXCH  = PE                                                                  
   EATOM  =   264.5486 eV,   19.4438 Ry                                         
                                                                                
   TITEL  = PAW_PBE N 08Apr2002                                                 
   LULTRA =        F    use ultrasoft PP ?                                      
   IUNSCR =        1    unscreen: 0-lin 1-nonlin 2-no                           
   RPACOR =    1.200    partial core radius                                     
   POMASS =   14.001; ZVAL   =    5.000    mass and valenz                      
   RCORE  =    1.500    outmost cutoff radius                                   
   RWIGS  =    1.400; RWIGS  =    0.741    wigner-seitz radius (au A)           
   ENMAX  =  400.000; ENMIN  =  300.000 eV                                      
   ICORE  =        2    local potential                                         
   LCOR   =        T    correct aug charges                                     
   LPAW   =        T    paw PP                                                  
   EAUG   =  627.112                                                            
   DEXC   =    0.000                                                            
   RMAX   =    1.529    core radius for proj-oper                               
   RAUG   =    1.300    factor for augmentation sphere                          
   RDEP   =    1.514    radius for radial grids                                 
   RDEPT  =    1.338    core radius for aug-charge                              
                                                                                
   Atomic configuration                                                         
    4 entries                                                                   
     n  l   j            E        occ.                                          
     1  0  0.50      -384.7179   2.0000                                         
     2  0  0.50       -18.5828   2.0000                                         
     2  1  0.50        -7.0898   3.0000                                         
     3  2  1.50        -6.8029   0.0000                                         
   Description                                                                  
     l       E           TYP  RCUT    TYP  RCUT                                 
     0    -18.5828119     23  1.200                                             
     0    -13.5018863     23  1.200                                             
     1     -7.0897853     23  1.500                                             
     1      9.5240782     23  1.500                                             
     2     -6.8029130      7  1.500                                             
  local pseudopotential read in
  partial core-charges read in
  partial kinetic energy density read in
  atomic valenz-charges read in
  non local Contribution for L=           0  read in
    real space projection operators read in
  non local Contribution for L=           0  read in
    real space projection operators read in
  non local Contribution for L=           1  read in
    real space projection operators read in
  non local Contribution for L=           1  read in
    real space projection operators read in
    PAW grid and wavefunctions read in
 
   number of l-projection  operators is LMAX  =           4
   number of lm-projection operators is LMMAX =           8
 
 POTCAR:    PAW_PBE O 08Apr2002                   
   VRHFIN =O: s2p4                                                              
   LEXCH  = PE                                                                  
   EATOM  =   432.3788 eV,   31.7789 Ry                                         
                                                                                
   TITEL  = PAW_PBE O 08Apr2002                                                 
   LULTRA =        F    use ultrasoft PP ?                                      
   IUNSCR =        1    unscreen: 0-lin 1-nonlin 2-no                           
   RPACOR =    1.200    partial core radius                                     
   POMASS =   16.000; ZVAL   =    6.000    mass and valenz                      
   RCORE  =    1.520    outmost cutoff radius                                   
   RWIGS  =    1.550; RWIGS  =    0.820    wigner-seitz radius (au A)           
   ENMAX  =  400.000; ENMIN  =  300.000 eV                                      
   ICORE  =        2    local potential                                         
   LCOR   =        T    correct aug charges                                     
   LPAW   =        T    paw PP                                                  
   EAUG   =  605.392                                                            
   DEXC   =    0.000                                                            
   RMAX   =    1.553    core radius for proj-oper                               
   RAUG   =    1.300    factor for augmentation sphere                          
   RDEP   =    1.550    radius for radial grids                                 
   RDEPT  =    1.329    core radius for aug-charge                              
                                                                                
   Atomic configuration                                                         
    4 entries                                                                   
     n  l   j            E        occ.                                          
     1  0  0.50      -514.6923   2.0000                                         
     2  0  0.50       -23.9615   2.0000                                         
     2  1  0.50        -9.0305   4.0000                                         
     3  2  1.50        -9.5241   0.0000                                         
   Description                                                                  
     l       E           TYP  RCUT    TYP  RCUT                                 
     0    -23.9615318     23  1.200                                             
     0     -9.5240782     23  1.200                                             
     1     -9.0304911     23  1.520                                             
     1      8.1634956     23  1.520                                             
     2     -9.5240782      7  1.500                                             
  local pseudopotential read in
  partial core-charges read in
  partial kinetic energy density read in
  kinetic energy density of atom read in
  atomic valenz-charges read in
  non local Contribution for L=           0  read in
    real space projection operators read in
  non local Contribution for L=           0  read in
    real space projection operators read in
  non local Contribution for L=           1  read in
    real space projection operators read in
  non local Contribution for L=           1  read in
    real space projection operators read in
    PAW grid and wavefunctions read in
 
   number of l-projection  operators is LMAX  =           4
   number of lm-projection operators is LMMAX =           8
 
 Optimization of the real space projectors (new method)

 maximal supplied QI-value         = 25.13
 optimisation between [QCUT,QGAM] = [ 12.32, 24.88] = [ 42.47,173.37] Ry 
 Optimized for a Real-space Cutoff    1.06 Angstroem

   l    n(q)    QCUT    max X(q) W(low)/X(q) W(high)/X(q)  e(spline) 
   0      8    12.315   115.676    0.34E-03    0.18E-03    0.23E-06
   0      8    12.315    87.132    0.34E-03    0.18E-03    0.22E-06
   1      7    12.315     4.429    0.45E-03    0.12E-03    0.18E-06
   1      7    12.315     2.733    0.35E-03    0.97E-04    0.15E-06
 Optimization of the real space projectors (new method)

 maximal supplied QI-value         = 16.25
 optimisation between [QCUT,QGAM] = [ 12.51, 25.03] = [ 43.85,175.40] Ry 
 Optimized for a Real-space Cutoff    1.31 Angstroem

   l    n(q)    QCUT    max X(q) W(low)/X(q) W(high)/X(q)  e(spline) 
   2      9    12.514    46.356    0.36E-03    0.54E-03    0.48E-06
   2      9    12.514    41.843    0.37E-03    0.56E-03    0.49E-06
   0     10    12.514    48.958    0.13E-03    0.28E-03    0.23E-06
   0     10    12.514    32.776    0.12E-03    0.26E-03    0.22E-06
   1      9    12.514    17.787    0.44E-03    0.44E-04    0.36E-06
   1      9    12.514    14.435    0.39E-03    0.39E-04    0.32E-06
 Optimization of the real space projectors (new method)

 maximal supplied QI-value         = 34.20
 optimisation between [QCUT,QGAM] = [ 12.31, 24.97] = [ 42.46,174.58] Ry 
 Optimized for a Real-space Cutoff    1.00 Angstroem

   l    n(q)    QCUT    max X(q) W(low)/X(q) W(high)/X(q)  e(spline) 
   0      7    12.313    19.460    0.14E-03    0.42E-03    0.16E-06
   0      7    12.313    12.209    0.12E-03    0.40E-03    0.16E-06
   1      7    12.313     4.655    0.33E-03    0.59E-03    0.89E-07
 Optimization of the real space projectors (new method)

 maximal supplied QI-value         = 25.13
 optimisation between [QCUT,QGAM] = [ 12.32, 24.88] = [ 42.47,173.37] Ry 
 Optimized for a Real-space Cutoff    1.20 Angstroem

   l    n(q)    QCUT    max X(q) W(low)/X(q) W(high)/X(q)  e(spline) 
   0      9    12.315    79.467    0.14E-03    0.22E-04    0.37E-06
   0      9    12.315    66.151    0.14E-03    0.23E-04    0.36E-06
   1      8    12.315    22.077    0.30E-03    0.54E-03    0.45E-06
   1      8    12.315    15.894    0.30E-03    0.55E-03    0.45E-06
 Optimization of the real space projectors (new method)

 maximal supplied QI-value         = 24.76
 optimisation between [QCUT,QGAM] = [ 12.38, 25.00] = [ 42.90,175.06] Ry 
 Optimized for a Real-space Cutoff    1.13 Angstroem

   l    n(q)    QCUT    max X(q) W(low)/X(q) W(high)/X(q)  e(spline) 
   0      8    12.378    20.381    0.16E-03    0.54E-05    0.27E-06
   0      8    12.378    15.268    0.17E-03    0.61E-05    0.29E-06
   1      8    12.378     5.964    0.38E-03    0.23E-03    0.28E-06
   1      8    12.378     5.382    0.33E-03    0.20E-03    0.25E-06
  PAW_PBE C 08Apr2002                   :
 energy of atom  1       EATOM= -147.1560
 kinetic energy error for atom=    0.0057 (will be added to EATOM!!)
  PAW_PBE Zn 06Sep2000                  :
 energy of atom  2       EATOM=-1748.8345
 kinetic energy error for atom=    0.0020 (will be added to EATOM!!)
  PAW_PBE H 15Jun2001                   :
 energy of atom  3       EATOM=  -12.4884
 kinetic energy error for atom=    0.0004 (will be added to EATOM!!)
  PAW_PBE N 08Apr2002                   :
 energy of atom  4       EATOM= -264.5486
 kinetic energy error for atom=    0.0103 (will be added to EATOM!!)
  PAW_PBE O 08Apr2002                   :
 energy of atom  5       EATOM= -432.3788
 kinetic energy error for atom=    0.0168 (will be added to EATOM!!)
 
 
 POSCAR: Zn_H
  positions in direct lattice
  velocities in cartesian coordinates
 exchange correlation table for  LEXCH =        8
   RHO(1)=    0.500       N(1)  =     2000
   RHO(2)=  100.500       N(2)  =     4000
 


--------------------------------------------------------------------------------------------------------


 ion  position               nearest neighbor table
   1  0.928  0.966  0.143- 107 1.08 117 1.34  65 1.40
   2  0.907  0.958  0.428- 112 1.08 118 1.35  65 1.40
   3  0.928  0.790  0.900- 116 1.08 119 1.34  66 1.40
   4  0.572  0.466  0.645- 110 1.08 120 1.34  67 1.40
   5  0.593  0.298  0.117- 111 1.08 121 1.35  68 1.40
   6  0.092  0.798  0.116- 115 1.08 122 1.35  69 1.40
   7  0.592  0.458  0.929- 101 1.08 123 1.35  67 1.40
   8  0.572  0.290  0.402- 113 1.08 124 1.34  68 1.40
   9  0.407  0.458  0.429- 114 1.08 125 1.35  70 1.40
  10  0.072  0.790  0.401- 104 1.08 126 1.34  69 1.40
  11  0.092  0.958  0.928- 105 1.08 127 1.35  71 1.40
  12  0.407  0.298  0.617- 102 1.08 128 1.35  72 1.40
  13  0.907  0.798  0.616- 108 1.08 129 1.35  66 1.40
  14  0.072  0.966  0.644- 109 1.08 130 1.34  71 1.40
  15  0.428  0.290  0.902- 106 1.08 131 1.34  72 1.40
  16  0.428  0.466  0.145- 103 1.08 132 1.34  70 1.40
  17  0.823  0.026  0.119- 141 1.23 133 1.42  33 1.49
  18  0.841  0.064  0.446- 142 1.23 133 1.42  34 1.49
  19  0.841  0.691  0.598- 143 1.23 134 1.42  35 1.49
  20  0.658  0.564  0.947- 144 1.23 135 1.42  36 1.49
  21  0.659  0.192  0.099- 145 1.23 136 1.42  37 1.49
  22  0.177  0.730  0.426- 146 1.23 137 1.42  38 1.49
  23  0.677  0.526  0.619- 147 1.23 135 1.42  39 1.49
  24  0.677  0.230  0.426- 148 1.23 136 1.42  40 1.49
  25  0.323  0.526  0.119- 149 1.23 138 1.42  41 1.49
  26  0.159  0.691  0.098- 150 1.23 137 1.42  42 1.49
  27  0.159  0.064  0.946- 151 1.23 139 1.42  43 1.49
  28  0.341  0.191  0.599- 152 1.23 140 1.42  44 1.49
  29  0.823  0.730  0.926- 153 1.23 134 1.42  45 1.49
  30  0.177  0.025  0.619- 154 1.23 139 1.42  46 1.49
  31  0.323  0.230  0.926- 155 1.23 140 1.42  47 1.49
  32  0.341  0.564  0.447- 156 1.23 138 1.42  48 1.49
  33  0.781  0.068  0.117-  49 1.39  73 1.41  17 1.49
  34  0.799  0.107  0.438-  50 1.39  73 1.41  18 1.49
  35  0.799  0.649  0.607-  51 1.39  74 1.41  19 1.49
  36  0.701  0.607  0.938-  52 1.39  75 1.41  20 1.49
  37  0.701  0.149  0.107-  53 1.39  76 1.41  21 1.49
  38  0.219  0.688  0.427-  54 1.39  77 1.41  22 1.49
  39  0.719  0.568  0.618-  55 1.39  75 1.41  23 1.49
  40  0.719  0.188  0.428-  56 1.39  76 1.41  24 1.49
  41  0.281  0.568  0.118-  57 1.39  78 1.41  25 1.49
  42  0.201  0.649  0.107-  58 1.39  77 1.41  26 1.49
  43  0.201  0.107  0.938-  59 1.39  79 1.41  27 1.49
  44  0.299  0.149  0.608-  60 1.39  80 1.41  28 1.49
  45  0.781  0.688  0.927-  61 1.39  74 1.41  29 1.49
  46  0.219  0.068  0.617-  62 1.39  79 1.41  30 1.49
  47  0.281  0.187  0.928-  63 1.39  80 1.41  31 1.49
  48  0.299  0.607  0.438-  64 1.39  78 1.41  32 1.49
  49  0.752  0.070  0.959-  88 1.09  33 1.39  53 1.41
  50  0.788  0.146  0.591-  99 1.09  34 1.39  56 1.41
  51  0.788  0.610  0.454-  93 1.09  35 1.39  55 1.41
  52  0.712  0.646  0.091-  90 1.09  36 1.39  61 1.41
  53  0.712  0.110  0.954-  98 1.09  37 1.39  49 1.41
  54  0.248  0.686  0.586-  96 1.09  38 1.39  64 1.41
  55  0.748  0.570  0.459-  86 1.09  39 1.39  51 1.41
  56  0.748  0.186  0.586-  87 1.09  40 1.39  50 1.41
  57  0.252  0.570  0.959-  95 1.09  41 1.39  58 1.41
  58  0.212  0.610  0.954-  91 1.09  42 1.39  57 1.41
  59  0.212  0.146  0.091-  92 1.09  43 1.39  63 1.41
  60  0.288  0.110  0.454-  85 1.09  44 1.39  62 1.41
  61  0.752  0.686  0.086-  89 1.09  45 1.39  52 1.41
  62  0.248  0.070  0.459- 100 1.09  46 1.39  60 1.41
  63  0.252  0.186  0.086-  94 1.09  47 1.39  59 1.41
  64  0.288  0.646  0.591-  97 1.09  48 1.39  54 1.41
  65  0.893  0.986  0.286-   1 1.40   2 1.40 133 1.43
  66  0.893  0.770  0.758-   3 1.40  13 1.40 134 1.43
  67  0.607  0.486  0.787-   4 1.40   7 1.40 135 1.43
  68  0.607  0.270  0.258-   8 1.40   5 1.40 136 1.43
  69  0.107  0.769  0.258-  10 1.40   6 1.40 137 1.43
  70  0.393  0.486  0.288-  16 1.40   9 1.40 138 1.43
  71  0.107  0.986  0.787-  14 1.40  11 1.40 139 1.43
  72  0.393  0.270  0.759-  15 1.40  12 1.40 140 1.43
  73  0.770  0.108  0.275-  33 1.41  34 1.41  76 1.43
  74  0.770  0.648  0.770-  45 1.41  35 1.41  75 1.43
  75  0.729  0.608  0.775-  39 1.41  36 1.41  74 1.43
  76  0.730  0.148  0.270-  40 1.41  37 1.41  73 1.43
  77  0.230  0.648  0.270-  38 1.41  42 1.41  78 1.43
  78  0.270  0.608  0.275-  41 1.41  48 1.41  77 1.43
  79  0.230  0.107  0.775-  46 1.41  43 1.41  80 1.43
  80  0.270  0.148  0.770-  47 1.41  44 1.41  79 1.43
  81  0.009  0.878  0.022- 127 2.01 122 2.01 119 2.03 117 2.03
  82  0.991  0.878  0.522- 118 2.01 129 2.01 126 2.03 130 2.03
  83  0.491  0.378  0.523- 128 2.01 125 2.01 124 2.03 120 2.03
  84  0.509  0.378  0.023- 121 2.01 123 2.01 132 2.03 131 2.03
  85  0.311  0.111  0.330-  60 1.09
  86  0.738  0.539  0.339-  55 1.09
  87  0.739  0.217  0.706-  56 1.09
  88  0.761  0.039  0.839-  49 1.09
  89  0.761  0.717  0.206-  61 1.09
  90  0.689  0.645  0.215-  52 1.09
  91  0.189  0.611  0.830-  58 1.09
  92  0.189  0.145  0.215-  59 1.09
  93  0.810  0.611  0.330-  51 1.09
  94  0.261  0.216  0.206-  63 1.09
  95  0.261  0.539  0.839-  57 1.09
  96  0.239  0.716  0.706-  54 1.09
  97  0.311  0.645  0.715-  64 1.09
  98  0.689  0.111  0.830-  53 1.09
  99  0.811  0.145  0.715-  50 1.09
 100  0.239  0.039  0.339-  62 1.09
 101  0.609  0.462  0.066-   7 1.08
 102  0.391  0.294  0.480-  12 1.08
 103  0.431  0.476  0.009-  16 1.08
 104  0.069  0.780  0.537-  10 1.08
 105  0.109  0.961  0.065-  11 1.08
 106  0.430  0.280  0.038-  15 1.08
 107  0.931  0.976  0.008-   1 1.08
 108  0.891  0.794  0.479-  13 1.08
 109  0.069  0.976  0.508-  14 1.08
 110  0.569  0.476  0.509-   4 1.08
 111  0.609  0.294  0.980-   5 1.08
 112  0.891  0.962  0.565-   2 1.08
 113  0.569  0.280  0.538-   8 1.08
 114  0.391  0.462  0.566-   9 1.08
 115  0.109  0.794  0.979-   6 1.08
 116  0.930  0.780  0.036-   3 1.08
 117  0.961  0.928  0.196-   1 1.34 118 1.37  81 2.03
 118  0.948  0.923  0.372-   2 1.35 117 1.37  82 2.01
 119  0.961  0.828  0.847-   3 1.34 129 1.37  81 2.03
 120  0.539  0.428  0.698-   4 1.34 123 1.37  83 2.03
 121  0.552  0.333  0.173-   5 1.35 124 1.37  84 2.01
 122  0.052  0.833  0.172-   6 1.35 126 1.37  81 2.01
 123  0.552  0.423  0.873-   7 1.35 120 1.37  84 2.01
 124  0.539  0.328  0.349-   8 1.34 121 1.37  83 2.03
 125  0.448  0.423  0.373-   9 1.35 132 1.37  83 2.01
 126  0.039  0.828  0.347-  10 1.34 122 1.37  82 2.03
 127  0.052  0.923  0.872-  11 1.35 130 1.37  81 2.01
 128  0.448  0.333  0.673-  12 1.35 131 1.37  83 2.01
 129  0.948  0.833  0.672-  13 1.35 119 1.37  82 2.01
 130  0.039  0.928  0.696-  14 1.34 127 1.37  82 2.03
 131  0.461  0.328  0.849-  15 1.34 128 1.37  84 2.03
 132  0.461  0.428  0.198-  16 1.34 125 1.37  84 2.03
 133  0.852  0.026  0.284-  18 1.42  17 1.42  65 1.43
 134  0.852  0.729  0.760-  19 1.42  29 1.42  66 1.43
 135  0.648  0.526  0.785-  20 1.42  23 1.42  67 1.43
 136  0.648  0.229  0.261-  21 1.42  24 1.42  68 1.43
 137  0.148  0.729  0.260-  26 1.42  22 1.42  69 1.43
 138  0.352  0.526  0.285-  32 1.42  25 1.42  70 1.43
 139  0.148  0.026  0.784-  27 1.42  30 1.42  71 1.43
 140  0.352  0.229  0.761-  28 1.42  31 1.42  72 1.43
 141  0.833  0.991  0.983-  17 1.23
 142  0.866  0.062  0.588-  18 1.23
 143  0.866  0.694  0.457-  19 1.23
 144  0.634  0.562  0.088-  20 1.23
 145  0.634  0.194  0.957-  21 1.23
 146  0.167  0.765  0.561-  22 1.23
 147  0.667  0.491  0.484-  23 1.23
 148  0.667  0.265  0.561-  24 1.23
 149  0.333  0.491  0.984-  25 1.23
 150  0.134  0.694  0.957-  26 1.23
 151  0.134  0.062  0.088-  27 1.23
 152  0.366  0.194  0.457-  28 1.23
 153  0.832  0.765  0.061-  29 1.23
 154  0.167  0.991  0.483-  30 1.23
 155  0.332  0.265  0.061-  31 1.23
 156  0.366  0.562  0.588-  32 1.23
 

IMPORTANT INFORMATION: All symmetrisations will be switched off!
NOSYMM: (Re-)initialisation of all symmetry stuff for point group C_1.


----------------------------------------------------------------------------------------

                                     Primitive cell                                     

  volume of cell :    4499.6012

  direct lattice vectors                    reciprocal lattice vectors
    24.961819629 -0.001410649  0.000211349     0.040061182 -0.000003242 -0.000005917
     0.001429842 24.281050610 -3.624675752     0.000002327  0.041310215  0.000842952
     0.001087592 -0.151950126  7.446552320    -0.000000004  0.020108116  0.134700649

  length of vectors
    24.961819670 24.550105806  7.448102542     0.040061182  0.041318815  0.136193249

  position of ions in fractional coordinates (direct lattice)
     0.928099641  0.965750336  0.143468683
     0.907370059  0.957960413  0.428296090
     0.927808076  0.790009792  0.900451173
     0.571637433  0.465789548  0.644553195
     0.592535737  0.297806151  0.116555031
     0.092478237  0.797618808  0.115555040
     0.592434666  0.457979709  0.929298019
     0.571938881  0.290062902  0.401521284
     0.407299952  0.457969722  0.429422487
     0.071812430  0.789965987  0.400545645
     0.092461573  0.957816168  0.928294081
     0.407271221  0.297740551  0.616644786
     0.907164311  0.797759320  0.615546938
     0.071746740  0.965699649  0.643554805
     0.427849386  0.290050686  0.901641056
     0.428073913  0.465784569  0.144651449
     0.823080219  0.025637360  0.118685836
     0.841374208  0.064385156  0.446328942
     0.840935777  0.691489156  0.598002359
     0.658480799  0.564384776  0.946880285
     0.658771117  0.191557033  0.098587283
     0.176883659  0.730213492  0.425859948
     0.676653305  0.525607094  0.619173719
     0.677092578  0.230346921  0.426203881
     0.323012116  0.525518397  0.119408173
     0.158741673  0.691406250  0.098149608
     0.158515915  0.064221013  0.946447930
     0.341109797  0.191463428  0.598732183
     0.822656738  0.730365989  0.925601363
     0.176835965  0.025488330  0.618785618
     0.322728656  0.230256280  0.926323435
     0.341220866  0.564374913  0.447032080
     0.781006154  0.068344501  0.117360925
     0.799318562  0.106744691  0.437511201
     0.798855029  0.649175181  0.607073453
     0.700510919  0.606745152  0.937750169
     0.700858902  0.149230174  0.107397320
     0.218971894  0.687529840  0.427472469
     0.718725157  0.568305509  0.617542101
     0.719153884  0.187621453  0.427559180
     0.280954518  0.568227236  0.117760319
     0.200817215  0.649088707  0.107261636
     0.200586285  0.106565691  0.937658842
     0.299044144  0.149113636  0.607541102
     0.780630244  0.687626186  0.927270291
     0.218911110  0.068202630  0.617469905
     0.280713222  0.187484445  0.927724291
     0.299153365  0.606702111  0.437940873
     0.751923214  0.069867860  0.958984458
     0.788170785  0.145946585  0.590701654
     0.787696745  0.609935921  0.454000172
     0.711688582  0.645970321  0.090838471
     0.711981876  0.110012234  0.954219266
     0.247972076  0.686030321  0.586023360
     0.747751703  0.569806856  0.459005646
     0.748217772  0.186080555  0.585954642
     0.251931399  0.569714786  0.959238311
     0.211991075  0.609841524  0.954212955
     0.211709186  0.145764414  0.090876617
     0.287937964  0.109898879  0.454352136
     0.751619603  0.686110123  0.085818444
     0.247999751  0.069751543  0.459088940
     0.251640057  0.185919512  0.086119974
     0.287940099  0.645924442  0.591017774
     0.893111338  0.986258796  0.286479966
     0.892777597  0.769573574  0.757537448
     0.606672910  0.486272721  0.787412186
     0.606937015  0.269610476  0.258486755
     0.106837011  0.769463395  0.257644610
     0.393042365  0.486256253  0.287557539
     0.106753287  0.986137978  0.786545655
     0.392873008  0.269557263  0.758616925
     0.770283016  0.107595585  0.274970355
     0.769864309  0.648357666  0.769751840
     0.729491454  0.607572218  0.775058420
     0.729893897  0.148379661  0.269936697
     0.229791700  0.648279878  0.269948330
     0.270179398  0.607508900  0.275245599
     0.229629337  0.107438087  0.775113586
     0.270002239  0.148241779  0.770088990
     0.009069572  0.877713833  0.021787559
     0.990655063  0.877762030  0.521816400
     0.490659264  0.377797031  0.522951398
     0.509078098  0.377828348  0.023047725
     0.310777924  0.111138152  0.330412936
     0.738494783  0.539361134  0.338920732
     0.738992378  0.216514220  0.706116581
     0.761132602  0.039430003  0.838818688
     0.760869070  0.716565941  0.205888785
     0.688912790  0.644757513  0.214910032
     0.189200263  0.611033014  0.830165966
     0.188882271  0.144522709  0.214831997
     0.810492099  0.611136620  0.329954869
     0.260839039  0.216359670  0.206287111
     0.261177217  0.539247645  0.839180891
     0.238680296  0.716463710  0.706118609
     0.310719775  0.644730350  0.715076739
     0.689145485  0.111238606  0.830286751
     0.810989308  0.144716500  0.714659242
     0.238798684  0.039318297  0.338909711
     0.608572036  0.461569794  0.065883611
     0.391207244  0.294123330  0.479959386
     0.430821043  0.475807348  0.008772968
     0.069126146  0.780040105  0.536566775
     0.108567602  0.961360624  0.064907955
     0.430482087  0.280115000  0.037653094
     0.930820742  0.975760707  0.007562581
     0.891068132  0.794169817  0.478911764
     0.069033392  0.975748701  0.507702064
     0.568874568  0.475814120  0.508683742
     0.608613842  0.294221037  0.979882741
     0.891259277  0.961550564  0.564931089
     0.569292724  0.280097513  0.537500314
     0.391165674  0.461547138  0.566022140
     0.108585154  0.793985561  0.978907459
     0.930473741  0.780050922  0.036428047
     0.960764783  0.927864046  0.196362760
     0.947916208  0.922890585  0.372048633
     0.960610045  0.827753385  0.847362046
     0.538971951  0.427922356  0.697567235
     0.551901765  0.332763562  0.172768727
     0.051847095  0.832603633  0.171575836
     0.551856422  0.422936558  0.873205571
     0.539138791  0.327823339  0.348547067
     0.447880477  0.422933614  0.373264097
     0.039044909  0.827714576  0.347365731
     0.051881407  0.922799015  0.872018513
     0.447876101  0.332732302  0.672815923
     0.947819911  0.832699961  0.671622501
     0.039041584  0.927828983  0.696383311
     0.460629038  0.327825560  0.848619252
     0.460754037  0.427926285  0.197615378
     0.851926307  0.026464044  0.284101682
     0.851526062  0.729442922  0.760120281
     0.647863220  0.526458931  0.784758599
     0.648190190  0.229464951  0.260839513
     0.148078572  0.729323794  0.260302056
     0.351827298  0.526419866  0.284942943
     0.147968304  0.026317275  0.784202686
     0.351654868  0.229378453  0.760983786
     0.832825933  0.991098738  0.983385531
     0.865970598  0.061941190  0.587682051
     0.865527901  0.693877948  0.456555101
     0.633966310  0.561933633  0.088419040
     0.634171601  0.193981011  0.957222356
     0.167105573  0.764804562  0.561030199
     0.666861259  0.491055022  0.483979231
     0.667408298  0.264961474  0.561398502
     0.332777607  0.490919069  0.984284606
     0.134222959  0.693825124  0.956627536
     0.133901920  0.061777890  0.087790652
     0.365718769  0.193905542  0.457370093
     0.832341650  0.765026379  0.060667655
     0.167104027  0.990950323  0.483496874
     0.332350493  0.264910658  0.061463728
     0.365785396  0.561980150  0.588488721

  ion indices of the primitive-cell ions
   primitive index   ion index
                 1           1
                 2           2
                 3           3
                 4           4
                 5           5
                 6           6
                 7           7
                 8           8
                 9           9
                10          10
                11          11
                12          12
                13          13
                14          14
                15          15
                16          16
                17          17
                18          18
                19          19
                20          20
                21          21
                22          22
                23          23
                24          24
                25          25
                26          26
                27          27
                28          28
                29          29
                30          30
                31          31
                32          32
                33          33
                34          34
                35          35
                36          36
                37          37
                38          38
                39          39
                40          40
                41          41
                42          42
                43          43
                44          44
                45          45
                46          46
                47          47
                48          48
                49          49
                50          50
                51          51
                52          52
                53          53
                54          54
                55          55
                56          56
                57          57
                58          58
                59          59
                60          60
                61          61
                62          62
                63          63
                64          64
                65          65
                66          66
                67          67
                68          68
                69          69
                70          70
                71          71
                72          72
                73          73
                74          74
                75          75
                76          76
                77          77
                78          78
                79          79
                80          80
                81          81
                82          82
                83          83
                84          84
                85          85
                86          86
                87          87
                88          88
                89          89
                90          90
                91          91
                92          92
                93          93
                94          94
                95          95
                96          96
                97          97
                98          98
                99          99
               100         100
               101         101
               102         102
               103         103
               104         104
               105         105
               106         106
               107         107
               108         108
               109         109
               110         110
               111         111
               112         112
               113         113
               114         114
               115         115
               116         116
               117         117
               118         118
               119         119
               120         120
               121         121
               122         122
               123         123
               124         124
               125         125
               126         126
               127         127
               128         128
               129         129
               130         130
               131         131
               132         132
               133         133
               134         134
               135         135
               136         136
               137         137
               138         138
               139         139
               140         140
               141         141
               142         142
               143         143
               144         144
               145         145
               146         146
               147         147
               148         148
               149         149
               150         150
               151         151
               152         152
               153         153
               154         154
               155         155
               156         156

----------------------------------------------------------------------------------------

 
 

Automatic generation of k-mesh.
 generate k-points for:    1    1    3
Space group operators:
 irot       det(A)        alpha          n_x          n_y          n_z        tau_x        tau_y        tau_z
    1     1.000000     0.000001     1.000000     0.000000     0.000000     0.000000     0.000000     0.000000
 
 Subroutine IBZKPT returns following result:
 ===========================================
 
 Found      2 irreducible k-points:
 
 Following reciprocal coordinates:
            Coordinates               Weight
  0.000000  0.000000  0.000000      1.000000
  0.000000  0.000000  0.333333      2.000000
 
 Following cartesian coordinates:
            Coordinates               Weight
  0.000000  0.000000  0.000000      1.000000
 -0.000000  0.006703  0.044900      2.000000
 


--------------------------------------------------------------------------------------------------------




 Dimension of arrays:
   k-points           NKPTS =      2   k-points in BZ     NKDIM =      2   number of bands    NBANDS=    400
   number of dos      NEDOS =    301   number of ions     NIONS =    156
   non local maximal  LDIM  =      6   non local SUM 2l+1 LMDIM =     18
   total plane-waves  NPLWV = ******
   max r-space proj   IRMAX =   2293   max aug-charges    IRDMAX=   7353
   dimension x,y,z NGX =   150 NGY =  150 NGZ =   48
   dimension x,y,z NGXF=   300 NGYF=  300 NGZF=   96
   support grid    NGXF=   300 NGYF=  300 NGZF=   96
   ions per type =              80   4  32  24  16
   NGX,Y,Z   is equivalent  to a cutoff of   9.99, 10.16, 10.71 a.u.
   NGXF,Y,Z  is equivalent  to a cutoff of  19.98, 20.32, 21.43 a.u.

 SYSTEM =  flex_MOF                                
 POSCAR =  Zn_H                                    

 Startparameter for this run:
   NWRITE =      2    write-flag & timer
   PREC   = normal    normal or accurate (medium, high low for compatibility)
   ISTART =      0    job   : 0-new  1-cont  2-samecut
   ICHARG =      2    charge: 1-file 2-atom 10-const
   ISPIN  =      1    spin polarized calculation?
   LNONCOLLINEAR =      F non collinear calculations
   LSORBIT =      F    spin-orbit coupling
   INIWAV =      1    electr: 0-lowe 1-rand  2-diag
   LASPH  =      F    aspherical Exc in radial PAW
   METAGGA=      F    non-selfconsistent MetaGGA calc.

 Electronic Relaxation 1
   ENCUT  =  600.0 eV  44.10 Ry    6.64 a.u.  49.85 49.03 14.88*2*pi/ulx,y,z
   ENINI  =  600.0     initial cutoff
   ENAUG  =  644.9 eV  augmentation charge cutoff
   NELM   =     80;   NELMIN=  4; NELMDL=-12     # of ELM steps 
   EDIFF  = 0.1E-05   stopping-criterion for ELM
   LREAL  =      T    real-space projection
   NLSPLINE    = F    spline interpolate recip. space projectors
   LCOMPAT=      F    compatible to vasp.4.4
   GGA_COMPAT  = T    GGA compatible to vasp.4.4-vasp.4.6
   LMAXPAW     = -100 max onsite density
   LMAXMIX     =    2 max onsite mixed and CHGCAR
   VOSKOWN=      0    Vosko Wilk Nusair interpolation
   ROPT   =   -0.00050  -0.00050  -0.00050  -0.00050
   ROPT   =   -0.00050
 Ionic relaxation
   EDIFFG = -.1E-01   stopping-criterion for IOM
   NSW    =   1000    number of steps for IOM
   NBLOCK =      1;   KBLOCK =   1000    inner block; outer block 
   IBRION =      1    ionic relax: 0-MD 1-quasi-New 2-CG
   NFREE  =      0    steps in history (QN), initial steepest desc. (CG)
   ISIF   =      4    stress and relaxation
   IWAVPR =     11    prediction:  0-non 1-charg 2-wave 3-comb
   ISYM   =      0    0-nonsym 1-usesym 2-fastsym
   LCORR  =      T    Harris-Foulkes like correction to forces

   POTIM  = 0.5000    time-step for ionic-motion
   TEIN   =    0.0    initial temperature
   TEBEG  =    0.0;   TEEND  =   0.0 temperature during run
   SMASS  =  -3.00    Nose mass-parameter (am)
   estimated Nose-frequenzy (Omega)   =  0.10E-29 period in steps = 0.13E+47 mass=  -0.142E-25a.u.
   SCALEE = 1.0000    scale energy and forces
   NPACO  =    256;   APACO  = 16.0  distance and # of slots for P.C.
   PSTRESS=    0.0 pullay stress

  Mass of Ions in am
   POMASS =  12.01 65.39  1.00 14.00 16.00
  Ionic Valenz
   ZVAL   =   4.00 12.00  1.00  5.00  6.00
  Atomic Wigner-Seitz radii
   RWIGS  =  -1.00 -1.00 -1.00 -1.00 -1.00
  virtual crystal weights 
   VCA    =   1.00  1.00  1.00  1.00  1.00
   NELECT =     616.0000    total number of electrons
   NUPDOWN=      -1.0000    fix difference up-down

 DOS related values:
   EMIN   =  10.00;   EMAX   =-10.00  energy-range for DOS
   EFERMI =   0.00
   ISMEAR =     0;   SIGMA  =   0.05  broadening in eV -4-tet -1-fermi 0-gaus

 Electronic relaxation 2 (details)
   IALGO  =     48    algorithm
   LDIAG  =      T    sub-space diagonalisation (order eigenvalues)
   LSUBROT=      F    optimize rotation matrix (better conditioning)
   TURBO    =      0    0=normal 1=particle mesh
   IRESTART =      0    0=no restart 2=restart with 2 vectors
   NREBOOT  =      0    no. of reboots
   NMIN     =      0    reboot dimension
   EREF     =   0.00    reference energy to select bands
   IMIX   =      4    mixing-type and parameters
     AMIX     =   0.40;   BMIX     =  1.00
     AMIX_MAG =   1.60;   BMIX_MAG =  1.00
     AMIN     =   0.10
     WC   =   100.;   INIMIX=   1;  MIXPRE=   1;  MAXMIX= -45

 Intra band minimization:
   WEIMIN = 0.0010     energy-eigenvalue tresh-hold
   EBREAK =  0.63E-09  absolut break condition
   DEPER  =   0.30     relativ break condition  

   TIME   =   0.40     timestep for ELM

  volume/ion in A,a.u.               =      28.84       194.65
  Fermi-wavevector in a.u.,A,eV,Ry     =   0.843743  1.594444  9.686027  0.711903
  Thomas-Fermi vector in A             =   1.958660
 
 Write flags
   LWAVE        =      T    write WAVECAR
   LDOWNSAMPLE  =      F    k-point downsampling of WAVECAR
   LCHARG       =      T    write CHGCAR
   LVTOT        =      F    write LOCPOT, total local potential
   LVHAR        =      F    write LOCPOT, Hartree potential only
   LELF         =      F    write electronic localiz. function (ELF)
   LORBIT       =      0    0 simple, 1 ext, 2 COOP (PROOUT), +10 PAW based schemes


 Dipole corrections
   LMONO  =      F    monopole corrections only (constant potential shift)
   LDIPOL =      F    correct potential (dipole corrections)
   IDIPOL =      0    1-x, 2-y, 3-z, 4-all directions 
   EPSILON=  1.0000000 bulk dielectric constant

 Exchange correlation treatment:
   GGA     =    PE    GGA type
   LEXCH   =     8    internal setting for exchange type
   VOSKOWN=      0    Vosko Wilk Nusair interpolation
   LHFCALC =     F    Hartree Fock is set to
   LHFONE  =     F    Hartree Fock one center treatment
   AEXX    =    0.0000 exact exchange contribution

 Linear response parameters
   LEPSILON=     F    determine dielectric tensor
   LRPA    =     F    only Hartree local field effects (RPA)
   LNABLA  =     F    use nabla operator in PAW spheres
   LVEL    =     F    velocity operator in full k-point grid
   LINTERFAST=   F  fast interpolation
   KINTER  =     0    interpolate to denser k-point grid
   CSHIFT  =0.1000    complex shift for real part using Kramers Kronig
   OMEGAMAX=  -1.0    maximum frequency
   DEG_THRESHOLD= 0.2000000E-02 threshold for treating states as degnerate
   RTIME   =   -0.100 relaxation time in fs
  (WPLASMAI=    0.000 imaginary part of plasma frequency in eV, 0.658/RTIME)
   DFIELD  = 0.0000000 0.0000000 0.0000000 field for delta impulse in time
 
 Orbital magnetization related:
   ORBITALMAG=     F  switch on orbital magnetization
   LCHIMAG   =     F  perturbation theory with respect to B field
   DQ        =  0.001000  dq finite difference perturbation B field
   LLRAUG    =     F  two centre corrections for induced B field



--------------------------------------------------------------------------------------------------------


 quasi-Newton-method for relaxation of ions
 charge density and potential will be updated during run
 non-spin polarized calculation
 RMM-DIIS sequential band-by-band
 perform sub-space diagonalisation
    before iterative eigenvector-optimisation
 modified Broyden-mixing scheme, WC =      100.0
 initial mixing is a Kerker type mixing with AMIX =  0.4000 and BMIX =      1.0000
 Hartree-type preconditioning will be used
 using additional bands           92
 real space projection scheme for non local part
 use partial core corrections
 calculate Harris-corrections to forces 
   (improved forces if not selfconsistent)
 use gradient corrections 
 use of overlap-Matrix (Vanderbilt PP)
 Gauss-broadening in eV      SIGMA  =   0.05


--------------------------------------------------------------------------------------------------------


  energy-cutoff  :      600.00
  volume of cell :     4499.60
      direct lattice vectors                 reciprocal lattice vectors
    24.961819629 -0.001410649  0.000211349     0.040061182 -0.000003242 -0.000005917
     0.001429842 24.281050610 -3.624675752     0.000002327  0.041310215  0.000842952
     0.001087592 -0.151950126  7.446552320    -0.000000004  0.020108116  0.134700649

  length of vectors
    24.961819670 24.550105806  7.448102542     0.040061182  0.041318815  0.136193249


 
 k-points in units of 2pi/SCALE and weight: read from INCAR                         
   0.00000000  0.00000000  0.00000000       0.333
  -0.00000000  0.00670271  0.04490022       0.667
 
 k-points in reciprocal lattice and weights: read from INCAR                         
   0.00000000  0.00000000  0.00000000       0.333
   0.00000000  0.00000000  0.33333333       0.667
 
 position of ions in fractional coordinates (direct lattice) 
   0.92809964  0.96575034  0.14346868
   0.90737006  0.95796041  0.42829609
   0.92780808  0.79000979  0.90045117
   0.57163743  0.46578955  0.64455320
   0.59253574  0.29780615  0.11655503
   0.09247824  0.79761881  0.11555504
   0.59243467  0.45797971  0.92929802
   0.57193888  0.29006290  0.40152128
   0.40729995  0.45796972  0.42942249
   0.07181243  0.78996599  0.40054564
   0.09246157  0.95781617  0.92829408
   0.40727122  0.29774055  0.61664479
   0.90716431  0.79775932  0.61554694
   0.07174674  0.96569965  0.64355480
   0.42784939  0.29005069  0.90164106
   0.42807391  0.46578457  0.14465145
   0.82308022  0.02563736  0.11868584
   0.84137421  0.06438516  0.44632894
   0.84093578  0.69148916  0.59800236
   0.65848080  0.56438478  0.94688028
   0.65877112  0.19155703  0.09858728
   0.17688366  0.73021349  0.42585995
   0.67665331  0.52560709  0.61917372
   0.67709258  0.23034692  0.42620388
   0.32301212  0.52551840  0.11940817
   0.15874167  0.69140625  0.09814961
   0.15851592  0.06422101  0.94644793
   0.34110980  0.19146343  0.59873218
   0.82265674  0.73036599  0.92560136
   0.17683596  0.02548833  0.61878562
   0.32272866  0.23025628  0.92632343
   0.34122087  0.56437491  0.44703208
   0.78100615  0.06834450  0.11736092
   0.79931856  0.10674469  0.43751120
   0.79885503  0.64917518  0.60707345
   0.70051092  0.60674515  0.93775017
   0.70085890  0.14923017  0.10739732
   0.21897189  0.68752984  0.42747247
   0.71872516  0.56830551  0.61754210
   0.71915388  0.18762145  0.42755918
   0.28095452  0.56822724  0.11776032
   0.20081722  0.64908871  0.10726164
   0.20058629  0.10656569  0.93765884
   0.29904414  0.14911364  0.60754110
   0.78063024  0.68762619  0.92727029
   0.21891111  0.06820263  0.61746991
   0.28071322  0.18748445  0.92772429
   0.29915336  0.60670211  0.43794087
   0.75192321  0.06986786  0.95898446
   0.78817079  0.14594658  0.59070165
   0.78769675  0.60993592  0.45400017
   0.71168858  0.64597032  0.09083847
   0.71198188  0.11001223  0.95421927
   0.24797208  0.68603032  0.58602336
   0.74775170  0.56980686  0.45900565
   0.74821777  0.18608055  0.58595464
   0.25193140  0.56971479  0.95923831
   0.21199107  0.60984152  0.95421295
   0.21170919  0.14576441  0.09087662
   0.28793796  0.10989888  0.45435214
   0.75161960  0.68611012  0.08581844
   0.24799975  0.06975154  0.45908894
   0.25164006  0.18591951  0.08611997
   0.28794010  0.64592444  0.59101777
   0.89311134  0.98625880  0.28647997
   0.89277760  0.76957357  0.75753745
   0.60667291  0.48627272  0.78741219
   0.60693701  0.26961048  0.25848676
   0.10683701  0.76946340  0.25764461
   0.39304237  0.48625625  0.28755754
   0.10675329  0.98613798  0.78654566
   0.39287301  0.26955726  0.75861692
   0.77028302  0.10759559  0.27497036
   0.76986431  0.64835767  0.76975184
   0.72949145  0.60757222  0.77505842
   0.72989390  0.14837966  0.26993670
   0.22979170  0.64827988  0.26994833
   0.27017940  0.60750890  0.27524560
   0.22962934  0.10743809  0.77511359
   0.27000224  0.14824178  0.77008899
   0.00906957  0.87771383  0.02178756
   0.99065506  0.87776203  0.52181640
   0.49065926  0.37779703  0.52295140
   0.50907810  0.37782835  0.02304772
   0.31077792  0.11113815  0.33041294
   0.73849478  0.53936113  0.33892073
   0.73899238  0.21651422  0.70611658
   0.76113260  0.03943000  0.83881869
   0.76086907  0.71656594  0.20588879
   0.68891279  0.64475751  0.21491003
   0.18920026  0.61103301  0.83016597
   0.18888227  0.14452271  0.21483200
   0.81049210  0.61113662  0.32995487
   0.26083904  0.21635967  0.20628711
   0.26117722  0.53924765  0.83918089
   0.23868030  0.71646371  0.70611861
   0.31071977  0.64473035  0.71507674
   0.68914548  0.11123861  0.83028675
   0.81098931  0.14471650  0.71465924
   0.23879868  0.03931830  0.33890971
   0.60857204  0.46156979  0.06588361
   0.39120724  0.29412333  0.47995939
   0.43082104  0.47580735  0.00877297
   0.06912615  0.78004010  0.53656677
   0.10856760  0.96136062  0.06490796
   0.43048209  0.28011500  0.03765309
   0.93082074  0.97576071  0.00756258
   0.89106813  0.79416982  0.47891176
   0.06903339  0.97574870  0.50770206
   0.56887457  0.47581412  0.50868374
   0.60861384  0.29422104  0.97988274
   0.89125928  0.96155056  0.56493109
   0.56929272  0.28009751  0.53750031
   0.39116567  0.46154714  0.56602214
   0.10858515  0.79398556  0.97890746
   0.93047374  0.78005092  0.03642805
   0.96076478  0.92786405  0.19636276
   0.94791621  0.92289058  0.37204863
   0.96061005  0.82775338  0.84736205
   0.53897195  0.42792236  0.69756724
   0.55190176  0.33276356  0.17276873
   0.05184709  0.83260363  0.17157584
   0.55185642  0.42293656  0.87320557
   0.53913879  0.32782334  0.34854707
   0.44788048  0.42293361  0.37326410
   0.03904491  0.82771458  0.34736573
   0.05188141  0.92279902  0.87201851
   0.44787610  0.33273230  0.67281592
   0.94781991  0.83269996  0.67162250
   0.03904158  0.92782898  0.69638331
   0.46062904  0.32782556  0.84861925
   0.46075404  0.42792629  0.19761538
   0.85192631  0.02646404  0.28410168
   0.85152606  0.72944292  0.76012028
   0.64786322  0.52645893  0.78475860
   0.64819019  0.22946495  0.26083951
   0.14807857  0.72932379  0.26030206
   0.35182730  0.52641987  0.28494294
   0.14796830  0.02631727  0.78420269
   0.35165487  0.22937845  0.76098379
   0.83282593  0.99109874  0.98338553
   0.86597060  0.06194119  0.58768205
   0.86552790  0.69387795  0.45655510
   0.63396631  0.56193363  0.08841904
   0.63417160  0.19398101  0.95722236
   0.16710557  0.76480456  0.56103020
   0.66686126  0.49105502  0.48397923
   0.66740830  0.26496147  0.56139850
   0.33277761  0.49091907  0.98428461
   0.13422296  0.69382512  0.95662754
   0.13390192  0.06177789  0.08779065
   0.36571877  0.19390554  0.45737009
   0.83234165  0.76502638  0.06066766
   0.16710403  0.99095032  0.48349687
   0.33235049  0.26491066  0.06146373
   0.36578540  0.56198015  0.58848872
 
 position of ions in cartesian coordinates  (Angst):
  23.16859274 23.42632347 -2.43198861
  22.65144329 23.19392565 -0.28277487
  23.16188677 19.04413525  3.84192353
  14.27047751 11.21111327  3.11148383
  14.79132276  7.21249980 -0.21139237
   2.30969122 19.34933359 -2.03060336
  14.78991282 10.97818583  5.26016358
  14.27748662  6.98121400  1.93868616
  10.16806980 11.05416064  1.53781136
   1.79413408 19.12023985  0.11932872
   2.31038825 23.11559801  3.44083694
  10.16732715  7.13517962  3.51275078
  22.64628203 19.27562231  1.69227535
   1.79300989 23.35031260  1.29193159
  10.68129455  6.90512737  5.66286803
  10.68632712 11.28715503 -0.61107298
  20.54574569  0.60330663  0.79104713
  21.00280871  1.49433262  3.09041432
  20.99292630 16.69803039  1.94680960
  16.43871573 13.55904784  5.00542094
  16.44450693  4.63529638  0.03994246
   4.41684525 17.66539176  0.52443863
  16.89192270 12.66725442  2.70569722
  16.90225570  5.52734838  2.33895970
   8.06385146 12.74153906 -1.01558631
   3.96357635 16.77293236 -1.77521372
   3.95796686  1.41531716  6.81502718
   8.51564615  4.55747456  3.76456977
  20.53706009 17.59224782  4.24537295
   4.41485689  0.52460942  4.51546993
   8.05723119  5.44965417  6.06337977
   8.51878685 13.63520790  1.28324383
  19.49556010  1.64054155  0.62637268
  19.95307424  2.52426581  2.87120409
  19.94246361 15.66928363  2.16772353
  17.48791466 14.58893032  4.78389930
  17.49504367  3.60615771  0.25897689
   5.46738489 16.62868346  0.69116964
  17.94217196 13.70420536  2.53878827
  17.95212282  4.48966385  2.50392687
   7.01407656 13.77886426 -1.18267173
   5.01380786 15.74397404 -1.55396427
   5.00817083  2.44476659  6.59610194
   7.46555994  3.52789794  3.98366122
  19.48794304 16.55428618  4.41270976
   5.46518872  1.56189807  4.35085580
   7.00838988  4.41095549  6.22883648
   7.46875613 14.66439749  1.06211441
  18.77051452  1.54968654  6.88803852
  19.67502810  3.45286739  3.86984831
  19.66370996 14.73978843  1.17008257
  17.76606445 15.67003119 -1.66484912
  17.77355828  2.52521452  6.70703549
   6.19145250 16.56814081  1.87726855
  18.66655708 13.76470834  1.35280250
  18.67778041  4.42814001  3.68901836
   6.29052401 13.68716179  5.07804015
   5.29359274 14.66230108  4.89516371
   5.28495378  3.52520575  0.14841349
   7.18810681  2.59901519  2.98507001
  18.76286734 16.64537423 -1.84771634
   6.19112408  1.62353228  3.16585550
   6.28175322  4.50088018 -0.03254788
   7.18907517 15.59351266  2.05983897
  22.29540591 23.90260921 -1.44139153
  22.28727759 18.56968759  2.85177626
  15.14521142 11.68670936  4.10105332
  15.15091892  6.50629234  0.94771287
   2.66822663 18.64407980 -0.87046867
   9.81206064 11.76256384  0.37887408
   2.66702175 23.82479984  2.28264552
   9.80803565  6.42930740  4.67210598
  19.22811860  2.56966547  1.65774483
  19.21897824 15.62475539  3.38207375
  18.21114578 14.63369250  3.56941497
  18.21998554  3.56076753  1.47242384
   5.73723950 15.69957369 -0.33957143
   6.74533739 14.70874961 -0.15233492
   5.73296272  2.49060710  5.38254418
   6.74079670  3.48207015  5.19723664
   0.22767171 21.30849057 -3.01918393
  24.73037558 21.23229673  0.70433975
  12.24885700  9.09315416  2.52489690
  12.70808097  9.16984899 -1.19777157
   7.75810074  2.64790640  2.05766313
  18.43531338 13.04371420  0.56893782
  18.44767200  5.14885577  4.47349641
  19.00022339  0.82886959  6.10354714
  18.99392498 17.36661573 -1.06399677
  17.19767243 15.62176239 -0.73655252
   4.72455939 14.71011281  3.96711774
   4.71528548  3.47625300  1.07594967
  20.23259027 14.78775919  0.24202541
   6.51155076  5.22172679  0.75194924
   6.52114229 12.96561730  4.29446175
   5.95968691 17.28886010  2.66125098
   7.75783055 15.54563595  2.98798355
  17.20338736  2.57385590  5.77971550
  20.24475301  3.40413207  4.79736845
   5.96127450  0.90285532  2.38124329
  15.19179703 11.19653004 -1.18230646
   9.76618720  7.06814171  2.50802366
  10.75476703 11.55116151 -1.65922794
   1.72721329 18.85856436  1.16819472
   2.71149009 23.33283004 -3.00125711
  10.74605768  6.79515785 -0.73484933
  23.23638288 23.69003291 -3.48030429
  22.24433839 19.20924983  0.68782175
   1.72514641 23.61496081  0.24387192
  14.20137794 11.47516968  2.06338843
  15.19359535  6.99424406  6.23042087
  22.24944260 23.26035930  0.72166826
  14.21156736  6.71858559  2.98738186
   9.76548255 11.12029049  2.54203743
   2.71268296 19.12990531  4.41156835
  23.22747265 18.93360811 -2.55597165
  23.98397749 22.49832120 -1.90077768
  23.66343763 22.35088299 -0.57449917
  23.98067982 19.96860998  3.30979121
  13.45509117 10.28364865  3.64350504
  13.77713601  8.05281813  0.08048799
   1.29557492 20.19034684 -1.74025880
  13.77689489 10.13588179  4.96947972
  13.45873308  7.90617278  1.40733461
  11.18092236 10.21192317  1.24662807
   0.97619326 20.04494217 -0.41351161
   1.29732217 22.27395309  3.14869523
  11.18100995  7.97622360  3.80420692
  23.66123073 20.11543972  1.98320506
   0.97663300 22.42279188  1.82258380
  11.49953066  7.83035144  5.13112365
  11.50208596 10.35982214 -0.07944340
  21.26597765  0.59820375  2.01983451
  21.25750967 17.59493892  3.01646134
  16.17345110 12.66281786  3.93563997
  16.18061839  5.53110113  1.11075603
   3.69763653 17.66898613 -0.70517809
   8.78331215 12.73823398  0.21381557
   3.69444865  0.51964265  5.74424601
   8.77910100  5.45342218  4.83535738
  20.79133735 23.91431824  3.73059626
  21.61692960  1.41347722  4.15187143
  21.60664003 16.77749102  0.88486180
  15.82585233 13.63000940 -1.37827622
  15.83139555  4.56371811  6.42502212
   4.17296288 18.48477395  1.40560749
  16.64729896 11.84885043  1.82420237
  16.66071499  6.34729691  3.22022494
   8.30850703 11.76999916  5.55017470
   3.35248178 16.70125393  4.60871426
   3.34261938  1.48650339  0.42984116
   9.12978063  4.63821694  2.70306290
  20.77792199 18.56525163 -2.32103178
   4.17316332 23.98761181  0.00854648
   8.29651868  6.42250084 -0.50245213
   9.13211266 13.55553152  2.34529354
 


--------------------------------------------------------------------------------------------------------


 k-point  1 :   0.0000 0.0000 0.0000  plane waves:  150035
 k-point  2 :   0.0000 0.0000 0.3333  plane waves:  150222

 maximum and minimum number of plane-waves per node :     37559    37453

 maximum number of plane-waves:    150222
 maximum index in each direction: 
   IXMAX=   49   IYMAX=   49   IZMAX=   14
   IXMIN=  -49   IYMIN=  -49   IZMIN=  -15


 real space projection operators:
  total allocation   :      12204.09 KBytes
  max/ min on nodes  :       3087.09       3015.56


 parallel 3D FFT for wavefunctions:
    minimum data exchange during FFTs selected (reduces bandwidth)
 parallel 3D FFT for charge:
    minimum data exchange during FFTs selected (reduces bandwidth)


 total amount of memory used by VASP MPI-rank0   103142. kBytes
=======================================================================

   base      :      30000. kBytes
   nonlr-proj:       6207. kBytes
   fftplans  :      13285. kBytes
   grid      :      22747. kBytes
   one-center:        606. kBytes
   wavefun   :      30297. kBytes
 
     INWAV:  cpu time    0.0002: real time    0.0002
 Broyden mixing: mesh for mixing (old mesh)
   NGX = 99   NGY = 99   NGZ = 29
  (NGX  =300   NGY  =300   NGZ  = 96)
  gives a total of 284229 points

 initial charge density was supplied:
 charge density of overlapping atoms calculated
 number of electron     616.0000000 magnetization 
 keeping initial charge density in first step


--------------------------------------------------------------------------------------------------------


 Maximum index for non-local projection operator          661
 Maximum index for augmentation-charges          427 (set IRDMAX)


--------------------------------------------------------------------------------------------------------


 First call to EWALD:  gamma=   0.107
 Maximum number of real-space cells 2x 2x 6
 Maximum number of reciprocal cells 4x 4x 2

    FEWALD:  cpu time    0.0178: real time    0.0178


--------------------------------------- Iteration      1(   1)  ---------------------------------------


    POTLOK:  cpu time    0.2491: real time    0.3792
    SETDIJ:  cpu time    0.0440: real time    0.0443
    EDDIAG:  cpu time    2.3911: real time    2.4540
  RMM-DIIS:  cpu time    3.2086: real time    3.2202
    ORTHCH:  cpu time    0.4735: real time    0.4746
       DOS:  cpu time    0.0033: real time    0.0038
    --------------------------------------------
      LOOP:  cpu time    6.3697: real time    6.5763

 eigenvalue-minimisations  :   800
 total energy-change (2. order) : 0.8683102E+04  (-0.2090795E+05)
 number of electron     616.0000000 magnetization 
 augmentation part      616.0000000 magnetization 

 Free energy of the ion-electron system (eV)
  ---------------------------------------------------
  alpha Z        PSCENC =       429.35017849
  Ewald energy   TEWEN  =     44534.40102467
  -Hartree energ DENC   =    -71201.36734439
  -exchange      EXHF   =         0.00000000
  -V(xc)+E(xc)   XCENC  =      2269.53976990
  PAW double counting   =     25034.14638475   -25847.60581054
  entropy T*S    EENTRO =        -0.04615248
  eigenvalues    EBANDS =      1031.00415796
  atomic energy  EATOM  =     32433.67991533
  Solvation  Ediel_sol  =         0.00000000
  ---------------------------------------------------
  free energy    TOTEN  =      8683.10212369 eV

  energy without entropy =     8683.14827617  energy(sigma->0) =     8683.12519993


--------------------------------------------------------------------------------------------------------




--------------------------------------- Iteration      1(   2)  ---------------------------------------


    EDDIAG:  cpu time    2.1053: real time    2.1077
  RMM-DIIS:  cpu time    2.9132: real time    2.9165
    ORTHCH:  cpu time    0.4600: real time    0.4609
       DOS:  cpu time    0.0033: real time    0.0033
    --------------------------------------------
      LOOP:  cpu time    5.4817: real time    5.4884

 eigenvalue-minimisations  :   800
 total energy-change (2. order) :-0.5325032E+04  (-0.6679077E+04)
 number of electron     616.0000000 magnetization 
 augmentation part      616.0000000 magnetization 

 Free energy of the ion-electron system (eV)
  ---------------------------------------------------
  alpha Z        PSCENC =       429.35017849
  Ewald energy   TEWEN  =     44534.40102467
  -Hartree energ DENC   =    -71201.36734439
  -exchange      EXHF   =         0.00000000
  -V(xc)+E(xc)   XCENC  =      2269.53976990
  PAW double counting   =     25034.14638475   -25847.60581054
  entropy T*S    EENTRO =        -0.07538435
  eigenvalues    EBANDS =     -4293.99864377
  atomic energy  EATOM  =     32433.67991533
  Solvation  Ediel_sol  =         0.00000000
  ---------------------------------------------------
  free energy    TOTEN  =      3358.07009009 eV

  energy without entropy =     3358.14547444  energy(sigma->0) =     3358.10778227


--------------------------------------------------------------------------------------------------------




--------------------------------------- Iteration      1(   3)  ---------------------------------------


    EDDIAG:  cpu time    2.0967: real time    2.0992
  RMM-DIIS:  cpu time    2.8195: real time    2.8231
    ORTHCH:  cpu time    0.4612: real time    0.4623
       DOS:  cpu time    0.0033: real time    0.0033
    --------------------------------------------
      LOOP:  cpu time    5.3808: real time    5.3879

 eigenvalue-minimisations  :   800
 total energy-change (2. order) :-0.2034484E+04  (-0.2999274E+04)
 number of electron     616.0000000 magnetization 
 augmentation part      616.0000000 magnetization 

 Free energy of the ion-electron system (eV)
  ---------------------------------------------------
  alpha Z        PSCENC =       429.35017849
  Ewald energy   TEWEN  =     44534.40102467
  -Hartree energ DENC   =    -71201.36734439
  -exchange      EXHF   =         0.00000000
  -V(xc)+E(xc)   XCENC  =      2269.53976990
  PAW double counting   =     25034.14638475   -25847.60581054
  entropy T*S    EENTRO =        -0.07592266
  eigenvalues    EBANDS =     -6328.48244717
  atomic energy  EATOM  =     32433.67991533
  Solvation  Ediel_sol  =         0.00000000
  ---------------------------------------------------
  free energy    TOTEN  =      1323.58574838 eV

  energy without entropy =     1323.66167104  energy(sigma->0) =     1323.62370971


--------------------------------------------------------------------------------------------------------




--------------------------------------- Iteration      1(   4)  ---------------------------------------


    EDDIAG:  cpu time    2.1028: real time    2.1052
  RMM-DIIS:  cpu time    2.8026: real time    2.8059
    ORTHCH:  cpu time    0.4572: real time    0.4580
       DOS:  cpu time    0.0026: real time    0.0026
    --------------------------------------------
      LOOP:  cpu time    5.3652: real time    5.3717

 eigenvalue-minimisations  :   800
 total energy-change (2. order) :-0.1522715E+04  (-0.1545993E+04)
 number of electron     616.0000000 magnetization 
 augmentation part      616.0000000 magnetization 

 Free energy of the ion-electron system (eV)
  ---------------------------------------------------
  alpha Z        PSCENC =       429.35017849
  Ewald energy   TEWEN  =     44534.40102467
  -Hartree energ DENC   =    -71201.36734439
  -exchange      EXHF   =         0.00000000
  -V(xc)+E(xc)   XCENC  =      2269.53976990
  PAW double counting   =     25034.14638475   -25847.60581054
  entropy T*S    EENTRO =        -0.03268421
  eigenvalues    EBANDS =     -7851.24071402
  atomic energy  EATOM  =     32433.67991533
  Solvation  Ediel_sol  =         0.00000000
  ---------------------------------------------------
  free energy    TOTEN  =      -199.12928002 eV

  energy without entropy =     -199.09659581  energy(sigma->0) =     -199.11293792


--------------------------------------------------------------------------------------------------------




--------------------------------------- Iteration      1(   5)  ---------------------------------------


    EDDIAG:  cpu time    2.1084: real time    2.1106
  RMM-DIIS:  cpu time    2.8021: real time    2.8051
    ORTHCH:  cpu time    0.4587: real time    0.4597
       DOS:  cpu time    0.0025: real time    0.0025
    --------------------------------------------
      LOOP:  cpu time    5.3716: real time    5.3778

 eigenvalue-minimisations  :   800
 total energy-change (2. order) :-0.6823792E+03  (-0.6077956E+03)
 number of electron     616.0000000 magnetization 
 augmentation part      616.0000000 magnetization 

 Free energy of the ion-electron system (eV)
  ---------------------------------------------------
  alpha Z        PSCENC =       429.35017849
  Ewald energy   TEWEN  =     44534.40102467
  -Hartree energ DENC   =    -71201.36734439
  -exchange      EXHF   =         0.00000000
  -V(xc)+E(xc)   XCENC  =      2269.53976990
  PAW double counting   =     25034.14638475   -25847.60581054
  entropy T*S    EENTRO =        -0.00003979
  eigenvalues    EBANDS =     -8533.65255552
  atomic energy  EATOM  =     32433.67991533
  Solvation  Ediel_sol  =         0.00000000
  ---------------------------------------------------
  free energy    TOTEN  =      -881.50847710 eV

  energy without entropy =     -881.50843731  energy(sigma->0) =     -881.50845721


--------------------------------------------------------------------------------------------------------




--------------------------------------- Iteration      1(   6)  ---------------------------------------


    EDDIAG:  cpu time    2.1028: real time    2.1050
  RMM-DIIS:  cpu time    2.7988: real time    2.8047
    ORTHCH:  cpu time    0.4628: real time    0.4638
       DOS:  cpu time    0.0010: real time    0.0010
    --------------------------------------------
      LOOP:  cpu time    5.3654: real time    5.3746

 eigenvalue-minimisations  :   800
 total energy-change (2. order) :-0.2499723E+03  (-0.2174808E+03)
 number of electron     616.0000000 magnetization 
 augmentation part      616.0000000 magnetization 

 Free energy of the ion-electron system (eV)
  ---------------------------------------------------
  alpha Z        PSCENC =       429.35017849
  Ewald energy   TEWEN  =     44534.40102467
  -Hartree energ DENC   =    -71201.36734439
  -exchange      EXHF   =         0.00000000
  -V(xc)+E(xc)   XCENC  =      2269.53976990
  PAW double counting   =     25034.14638475   -25847.60581054
  entropy T*S    EENTRO =        -0.00000000
  eigenvalues    EBANDS =     -8783.62492165
  atomic energy  EATOM  =     32433.67991533
  Solvation  Ediel_sol  =         0.00000000
  ---------------------------------------------------
  free energy    TOTEN  =     -1131.48080344 eV

  energy without entropy =    -1131.48080344  energy(sigma->0) =    -1131.48080344


--------------------------------------------------------------------------------------------------------




--------------------------------------- Iteration      1(   7)  ---------------------------------------


    EDDIAG:  cpu time    2.1062: real time    2.1085
  RMM-DIIS:  cpu time    2.8047: real time    2.8081
    ORTHCH:  cpu time    0.4579: real time    0.4588
       DOS:  cpu time    0.0022: real time    0.0022
    --------------------------------------------
      LOOP:  cpu time    5.3710: real time    5.3777

 eigenvalue-minimisations  :   800
 total energy-change (2. order) :-0.6893106E+02  (-0.6467460E+02)
 number of electron     616.0000000 magnetization 
 augmentation part      616.0000000 magnetization 

 Free energy of the ion-electron system (eV)
  ---------------------------------------------------
  alpha Z        PSCENC =       429.35017849
  Ewald energy   TEWEN  =     44534.40102467
  -Hartree energ DENC   =    -71201.36734439
  -exchange      EXHF   =         0.00000000
  -V(xc)+E(xc)   XCENC  =      2269.53976990
  PAW double counting   =     25034.14638475   -25847.60581054
  entropy T*S    EENTRO =        -0.00000000
  eigenvalues    EBANDS =     -8852.55598208
  atomic energy  EATOM  =     32433.67991533
  Solvation  Ediel_sol  =         0.00000000
  ---------------------------------------------------
  free energy    TOTEN  =     -1200.41186387 eV

  energy without entropy =    -1200.41186387  energy(sigma->0) =    -1200.41186387


--------------------------------------------------------------------------------------------------------




--------------------------------------- Iteration      1(   8)  ---------------------------------------


    EDDIAG:  cpu time    2.1015: real time    2.1038
  RMM-DIIS:  cpu time    2.8035: real time    2.8069
    ORTHCH:  cpu time    0.4578: real time    0.4587
       DOS:  cpu time    0.0068: real time    0.0068
    --------------------------------------------
      LOOP:  cpu time    5.3696: real time    5.3762

 eigenvalue-minimisations  :   800
 total energy-change (2. order) :-0.2561963E+02  (-0.2184044E+02)
 number of electron     616.0000000 magnetization 
 augmentation part      616.0000000 magnetization 

 Free energy of the ion-electron system (eV)
  ---------------------------------------------------
  alpha Z        PSCENC =       429.35017849
  Ewald energy   TEWEN  =     44534.40102467
  -Hartree energ DENC   =    -71201.36734439
  -exchange      EXHF   =         0.00000000
  -V(xc)+E(xc)   XCENC  =      2269.53976990
  PAW double counting   =     25034.14638475   -25847.60581054
  entropy T*S    EENTRO =        -0.00000000
  eigenvalues    EBANDS =     -8878.17560721
  atomic energy  EATOM  =     32433.67991533
  Solvation  Ediel_sol  =         0.00000000
  ---------------------------------------------------
  free energy    TOTEN  =     -1226.03148900 eV

  energy without entropy =    -1226.03148900  energy(sigma->0) =    -1226.03148900


--------------------------------------------------------------------------------------------------------




--------------------------------------- Iteration      1(   9)  ---------------------------------------


    EDDIAG:  cpu time    2.1042: real time    2.1066
  RMM-DIIS:  cpu time    5.7798: real time    5.7973
    ORTHCH:  cpu time    0.4621: real time    0.4630
       DOS:  cpu time    0.0010: real time    0.0010
    --------------------------------------------
      LOOP:  cpu time    8.3471: real time    8.3679

 eigenvalue-minimisations  :  1835
 total energy-change (2. order) :-0.1333083E+02  (-0.1277275E+02)
 number of electron     616.0000000 magnetization 
 augmentation part      616.0000000 magnetization 

 Free energy of the ion-electron system (eV)
  ---------------------------------------------------
  alpha Z        PSCENC =       429.35017849
  Ewald energy   TEWEN  =     44534.40102467
  -Hartree energ DENC   =    -71201.36734439
  -exchange      EXHF   =         0.00000000
  -V(xc)+E(xc)   XCENC  =      2269.53976990
  PAW double counting   =     25034.14638475   -25847.60581054
  entropy T*S    EENTRO =        -0.00000000
  eigenvalues    EBANDS =     -8891.50643449
[...]
   -.333E+02 0.150E+03 -.616E+02   0.157E+02 -.140E+03 0.743E+02   0.177E+02 -.104E+02 -.127E+02   0.227E-05 0.854E-05 -.393E-05
   -.149E+03 -.786E+02 -.914E+02   0.141E+03 0.641E+02 0.107E+03   0.855E+01 0.145E+02 -.159E+02   -.696E-05 -.214E-05 -.498E-05
   0.149E+03 0.801E+02 0.916E+02   -.140E+03 -.657E+02 -.108E+03   -.860E+01 -.145E+02 0.160E+02   0.722E-05 0.864E-06 0.482E-05
   0.149E+03 0.799E+02 0.917E+02   -.140E+03 -.654E+02 -.108E+03   -.860E+01 -.145E+02 0.160E+02   0.657E-05 0.127E-05 0.515E-05
   -.335E+02 -.150E+03 0.620E+02   0.159E+02 0.139E+03 -.747E+02   0.177E+02 0.104E+02 0.128E+02   0.212E-05 -.875E-05 0.494E-05
   0.338E+02 0.150E+03 -.620E+02   -.162E+02 -.140E+03 0.747E+02   -.177E+02 -.105E+02 -.128E+02   -.120E-05 0.870E-05 -.437E-05
   0.333E+02 -.150E+03 0.617E+02   -.157E+02 0.139E+03 -.744E+02   -.177E+02 0.104E+02 0.127E+02   -.791E-06 -.940E-05 0.448E-05
   0.827E+02 -.101E+03 -.598E+01   -.830E+02 0.102E+03 0.573E+01   0.265E+00 -.646E+00 0.248E+00   -.178E-04 0.261E-04 0.349E-05
   0.829E+02 0.101E+03 0.591E+01   -.832E+02 -.101E+03 -.566E+01   0.266E+00 0.646E+00 -.254E+00   -.172E-04 -.272E-04 -.452E-05
   -.828E+02 -.101E+03 -.595E+01   0.830E+02 0.102E+03 0.570E+01   -.262E+00 -.643E+00 0.254E+00   0.172E-04 0.247E-04 0.176E-05
   -.827E+02 0.101E+03 0.586E+01   0.830E+02 -.102E+03 -.560E+01   -.258E+00 0.652E+00 -.257E+00   0.175E-04 -.271E-04 -.252E-05
   -.825E+02 0.101E+03 0.589E+01   0.828E+02 -.102E+03 -.563E+01   -.260E+00 0.649E+00 -.255E+00   0.174E-04 -.258E-04 -.363E-05
   0.829E+02 -.101E+03 -.602E+01   -.831E+02 0.102E+03 0.577E+01   0.266E+00 -.643E+00 0.252E+00   -.190E-04 0.274E-04 0.366E-05
   -.830E+02 -.101E+03 -.593E+01   0.833E+02 0.102E+03 0.568E+01   -.268E+00 -.642E+00 0.249E+00   0.178E-04 0.266E-04 0.336E-05
   0.826E+02 0.101E+03 0.577E+01   -.828E+02 -.102E+03 -.551E+01   0.250E+00 0.660E+00 -.261E+00   -.160E-04 -.275E-04 -.572E-05
   0.209E+03 0.154E+03 0.250E+03   -.199E+03 -.190E+03 -.290E+03   -.105E+02 0.363E+02 0.396E+02   -.196E-04 0.519E-04 -.194E-04
   -.138E+03 -.238E+03 -.287E+03   0.165E+03 0.234E+03 0.334E+03   -.271E+02 0.343E+01 -.474E+02   -.428E-04 0.355E-04 0.326E-04
   -.138E+03 0.238E+03 0.287E+03   0.165E+03 -.234E+03 -.334E+03   -.271E+02 -.336E+01 0.474E+02   -.440E-04 -.350E-04 -.297E-04
   0.137E+03 -.237E+03 -.287E+03   -.164E+03 0.234E+03 0.334E+03   0.270E+02 0.344E+01 -.474E+02   0.429E-04 0.341E-04 0.329E-04
   0.138E+03 0.237E+03 0.287E+03   -.165E+03 -.234E+03 -.334E+03   0.271E+02 -.341E+01 0.474E+02   0.438E-04 -.348E-04 -.303E-04
   -.209E+03 -.154E+03 -.250E+03   0.199E+03 0.191E+03 0.289E+03   0.105E+02 -.363E+02 -.396E+02   0.196E-04 -.504E-04 0.199E-04
   -.209E+03 0.154E+03 0.250E+03   0.198E+03 -.190E+03 -.290E+03   0.106E+02 0.363E+02 0.396E+02   0.182E-04 0.486E-04 -.221E-04
   -.210E+03 -.155E+03 -.250E+03   0.200E+03 0.191E+03 0.289E+03   0.104E+02 -.364E+02 -.396E+02   0.192E-04 -.509E-04 0.196E-04
   0.210E+03 0.154E+03 0.250E+03   -.199E+03 -.191E+03 -.289E+03   -.105E+02 0.364E+02 0.396E+02   -.193E-04 0.526E-04 -.176E-04
   0.137E+03 0.237E+03 0.287E+03   -.164E+03 -.234E+03 -.334E+03   0.270E+02 -.340E+01 0.474E+02   0.427E-04 -.348E-04 -.323E-04
   0.137E+03 -.237E+03 -.287E+03   -.165E+03 0.234E+03 0.334E+03   0.271E+02 0.342E+01 -.474E+02   0.447E-04 0.353E-04 0.295E-04
   -.138E+03 0.237E+03 0.287E+03   0.165E+03 -.234E+03 -.334E+03   -.271E+02 -.342E+01 0.474E+02   -.400E-04 -.353E-04 -.348E-04
   0.210E+03 -.156E+03 -.250E+03   -.200E+03 0.192E+03 0.289E+03   -.105E+02 -.364E+02 -.395E+02   -.212E-04 -.554E-04 0.149E-04
   -.210E+03 0.154E+03 0.250E+03   0.199E+03 -.190E+03 -.290E+03   0.105E+02 0.363E+02 0.396E+02   0.205E-04 0.519E-04 -.192E-04
   0.211E+03 -.155E+03 -.250E+03   -.200E+03 0.192E+03 0.289E+03   -.104E+02 -.364E+02 -.395E+02   -.182E-04 -.525E-04 0.202E-04
   -.138E+03 -.238E+03 -.287E+03   0.165E+03 0.234E+03 0.334E+03   -.271E+02 0.338E+01 -.474E+02   -.435E-04 0.348E-04 0.307E-04
 -----------------------------------------------------------------------------------------------
   -.945E-01 -.311E-01 -.230E+00   0.369E-12 0.284E-12 -.398E-12   0.952E-01 0.112E-01 0.242E+00   0.250E-04 -.276E-04 -.241E-04
 
 
 POSITION                                       TOTAL-FORCE (eV/Angst)
 -----------------------------------------------------------------------------------
     23.16859     23.42632     -2.43199        -0.004186     -0.001849     -0.004135
     22.65144     23.19393     -0.28277         0.001863      0.002846     -0.000845
     23.16189     19.04414      3.84192        -0.004122      0.002698      0.003077
     14.27048     11.21111      3.11148         0.005154     -0.001116     -0.003774
     14.79132      7.21250     -0.21139        -0.002407     -0.002021      0.001686
      2.30969     19.34933     -2.03060        -0.002452     -0.002186      0.001373
     14.78991     10.97819      5.26016        -0.001627      0.002766     -0.002174
     14.27749      6.98121      1.93869         0.004181      0.001515      0.005806
     10.16807     11.05416      1.53781         0.001797      0.003066     -0.002579
      1.79413     19.12024      0.11933         0.004016      0.001297      0.006531
      2.31039     23.11560      3.44084        -0.002793      0.001628     -0.002680
     10.16733      7.13518      3.51275         0.002122     -0.001570      0.001097
     22.64628     19.27562      1.69228         0.002711     -0.001412      0.001875
      1.79301     23.35031      1.29193         0.003514     -0.002210     -0.005466
     10.68129      6.90513      5.66287        -0.003832      0.002643      0.002333
     10.68633     11.28716     -0.61107        -0.005200     -0.001335     -0.003780
     20.54575      0.60331      0.79105        -0.000651      0.004734     -0.000958
     21.00281      1.49433      3.09041         0.003278     -0.001696      0.001002
     20.99293     16.69803      1.94681         0.004736      0.002078     -0.004639
     16.43872     13.55905      5.00542        -0.002289     -0.001954     -0.000069
     16.44451      4.63530      0.03994        -0.001871      0.000892      0.000036
      4.41685     17.66539      0.52444        -0.000384      0.001421      0.006193
     16.89192     12.66725      2.70570         0.001837      0.006330      0.000484
     16.90226      5.52735      2.33896        -0.000055      0.001191      0.006361
      8.06385     12.74154     -1.01559        -0.000543      0.004418     -0.002297
      3.96358     16.77293     -1.77521        -0.001440      0.000971      0.000921
      3.95797      1.41532      6.81503        -0.001722     -0.001454     -0.001797
      8.51565      4.55747      3.76457         0.002054      0.000957     -0.000149
     20.53706     17.59225      4.24537         0.000446      0.001366      0.006307
      4.41486      0.52461      4.51547         0.002185      0.007084      0.000461
      8.05723      5.44965      6.06338        -0.000118      0.000796      0.005503
      8.51879     13.63521      1.28324         0.002770     -0.001385      0.000858
     19.49556      1.64054      0.62637        -0.002607      0.002030     -0.004465
     19.95307      2.52427      2.87120         0.000612     -0.001574     -0.001357
     19.94246     15.66928      2.16772         0.001344      0.000944      0.000457
     17.48791     14.58893      4.78390        -0.000783     -0.001415      0.000615
     17.49504      3.60616      0.25898         0.000082      0.001223      0.003051
      5.46738     16.62868      0.69117         0.001518     -0.002484      0.003589
     17.94217     13.70421      2.53879         0.000642      0.001019     -0.002547
     17.95212      4.48966      2.50393         0.002704     -0.003169      0.004491
      7.01408     13.77886     -1.18267        -0.001654      0.002891     -0.003703
      5.01381     15.74397     -1.55396         0.000666      0.001399      0.004036
      5.00817      2.44477      6.59610        -0.000342     -0.000971     -0.001098
      7.46556      3.52790      3.98366        -0.000688      0.001332      0.001969
     19.48794     16.55429      4.41271        -0.001646     -0.003462      0.001839
      5.46519      1.56190      4.35086         0.002101      0.002260     -0.004422
      7.00839      4.41096      6.22884        -0.003296     -0.003492      0.002544
      7.46876     14.66440      1.06211         0.000156     -0.002432     -0.003160
     18.77051      1.54969      6.88804         0.000289      0.002753      0.000836
     19.67503      3.45287      3.86985         0.003765     -0.004818      0.002005
     19.66371     14.73979      1.17008         0.000842      0.002453     -0.000170
     17.76606     15.67003     -1.66485        -0.001259     -0.004855     -0.001294
     17.77356      2.52521      6.70704        -0.003880      0.004633     -0.002527
      6.19145     16.56814      1.87727         0.001383     -0.004019      0.001290
     18.66656     13.76471      1.35280         0.003494      0.005563     -0.001885
     18.67778      4.42814      3.68902         0.000839     -0.003278      0.000737
      6.29052     13.68716      5.07804         0.000260      0.003136     -0.001018
      5.29359     14.66230      4.89516        -0.003882      0.004943     -0.003432
      5.28495      3.52521      0.14841        -0.004331     -0.005882      0.000947
      7.18811      2.59902      2.98507         0.004438      0.005755     -0.003966
     18.76287     16.64537     -1.84772        -0.002912     -0.004771      0.002623
      6.19112      1.62353      3.16586        -0.001357      0.001796     -0.000975
      6.28175      4.50088     -0.03255        -0.000599     -0.002524      0.001795
      7.18908     15.59351      2.05984         0.002894     -0.003616      0.002624
     22.29541     23.90261     -1.44139         0.000122     -0.001326     -0.000482
     22.28728     18.56969      2.85178        -0.000697      0.000677      0.002018
     15.14521     11.68671      4.10105        -0.000704     -0.001854     -0.001620
     15.15092      6.50629      0.94771         0.001223      0.000352      0.000963
      2.66823     18.64408     -0.87047         0.000931      0.000503      0.000708
      9.81206     11.76256      0.37887         0.000744     -0.002012     -0.001127
      2.66702     23.82480      2.28265         0.001743     -0.000118     -0.000812
      9.80804      6.42931      4.67211        -0.000443      0.000456      0.002438
     19.22812      2.56967      1.65774         0.002352     -0.001298      0.001888
     19.21898     15.62476      3.38207         0.000524     -0.000699      0.001059
     18.21115     14.63369      3.56941         0.000664     -0.000016      0.000138
     18.21999      3.56077      1.47242        -0.002327      0.000368     -0.001376
      5.73724     15.69957     -0.33957        -0.002325      0.000398     -0.001847
      6.74534     14.70875     -0.15233         0.001984     -0.000495      0.001840
      5.73296      2.49061      5.38254        -0.002696     -0.001581      0.001063
      6.74080      3.48207      5.19724         0.002731      0.001796     -0.001566
      0.22767     21.30849     -3.01918        -0.001051      0.000328     -0.000473
     24.73038     21.23230      0.70434        -0.001445     -0.002452     -0.002420
     12.24886      9.09315      2.52490         0.001468     -0.000244      0.000172
     12.70808      9.16985     -1.19777        -0.000662      0.001175      0.000262
      7.75810      2.64791      2.05766         0.001704      0.005091     -0.000638
     18.43531     13.04371      0.56894         0.003477      0.005376     -0.004131
     18.44767      5.14886      4.47350         0.004094     -0.006180      0.004175
     19.00022      0.82887      6.10355        -0.003315      0.005484     -0.003437
     18.99392     17.36662     -1.06400        -0.003958     -0.006220      0.003599
     17.19767     15.62176     -0.73655        -0.004057     -0.005480      0.002190
      4.72456     14.71011      3.96712        -0.001694      0.005020     -0.000611
      4.71529      3.47625      1.07595        -0.003154     -0.005586      0.001070
     20.23259     14.78776      0.24203         0.002951      0.005205     -0.002057
      6.51155      5.22173      0.75195        -0.004460     -0.006564      0.003440
      6.52114     12.96562      4.29446        -0.003151      0.006297     -0.003571
      5.95969     17.28886      2.66125         0.003780     -0.005759      0.003980
      7.75783     15.54564      2.98798         0.002975     -0.004889      0.001163
     17.20339      2.57386      5.77972        -0.001509      0.005232     -0.000562
     20.24475      3.40413      4.79737         0.003000     -0.005157      0.001077
      5.96127      0.90286      2.38124         0.003597      0.006235     -0.003857
     15.19180     11.19653     -1.18231        -0.004262      0.003417      0.002508
      9.76619      7.06814      2.50802         0.004629     -0.003443     -0.002354
     10.75477     11.55116     -1.65923        -0.006183     -0.004605     -0.005901
      1.72721     18.85856      1.16819         0.006690      0.004529      0.004908
      2.71149     23.33283     -3.00126        -0.004312      0.003761      0.002850
     10.74606      6.79516     -0.73485        -0.006200      0.003786      0.006543
     23.23638     23.69003     -3.48030        -0.006179     -0.004555     -0.004795
     22.24434     19.20925      0.68782         0.004435     -0.003195     -0.002610
      1.72515     23.61496      0.24387         0.006278     -0.004329     -0.005600
     14.20138     11.47517      2.06339         0.006031     -0.004589     -0.006097
     15.19360      6.99424      6.23042        -0.004758     -0.003574     -0.002931
     22.24944     23.26036      0.72167         0.004599      0.003970      0.003246
     14.21157      6.71859      2.98738         0.006952      0.004618      0.005453
      9.76548     11.12029      2.54204         0.004517      0.003641      0.002876
      2.71268     19.12991      4.41157        -0.005355     -0.003316     -0.002561
     23.22747     18.93361     -2.55597        -0.006385      0.003597      0.006541
     23.98398     22.49832     -1.90078        -0.002783     -0.001376     -0.001604
     23.66344     22.35088     -0.57450         0.000603      0.001415      0.000617
     23.98068     19.96861      3.30979        -0.003932      0.000633      0.003503
     13.45509     10.28365      3.64351         0.002383     -0.002006     -0.002280
     13.77714      8.05282      0.08049        -0.000417     -0.001423      0.000301
      1.29557     20.19035     -1.74026        -0.000750     -0.001091      0.000532
     13.77689     10.13588      4.96948        -0.000419      0.001307     -0.000300
     13.45873      7.90617      1.40733         0.002791      0.001328      0.002503
     11.18092     10.21192      1.24663         0.000697      0.001291     -0.000010
      0.97619     20.04494     -0.41351         0.002563      0.001845      0.002637
      1.29732     22.27395      3.14870         0.000030      0.002343     -0.000127
     11.18101      7.97622      3.80421        -0.000081     -0.001580      0.000684
     23.66123     20.11544      1.98321        -0.000548     -0.001671      0.000824
      0.97663     22.42279      1.82258         0.002797     -0.000832     -0.002240
     11.49953      7.83035      5.13112        -0.003374      0.000573      0.003225
     11.50209     10.35982     -0.07944        -0.002354     -0.001686     -0.002295
     21.26598      0.59820      2.01983        -0.000521      0.000424     -0.002281
     21.25751     17.59494      3.01646        -0.001081     -0.000939      0.002366
     16.17345     12.66282      3.93564         0.001040      0.000532     -0.002492
     16.18062      5.53110      1.11076         0.000675     -0.000042      0.002961
      3.69764     17.66899     -0.70518         0.000404      0.000060      0.002859
      8.78331     12.73823      0.21382        -0.000879      0.000729     -0.002732
      3.69445      0.51964      5.74425        -0.000101     -0.001068     -0.003124
      8.77910      5.45342      4.83536        -0.000941     -0.000472      0.002488
     20.79134     23.91432      3.73060         0.000687      0.004892     -0.006861
     21.61693      1.41348      4.15187         0.002227     -0.001521     -0.002685
     21.60664     16.77749      0.88486        -0.001161      0.001503      0.006000
     15.82585     13.63001     -1.37828        -0.002231     -0.000912     -0.002659
     15.83140      4.56372      6.42502        -0.001712      0.001384      0.002540
      4.17296     18.48477      1.40561         0.003600     -0.006850      0.000476
     16.64730     11.84885      1.82420        -0.000301      0.003337     -0.008115
     16.66071      6.34730      3.22022         0.003929     -0.007251      0.000581
      8.30851     11.77000      5.55017         0.000897      0.006200     -0.006259
      3.35248     16.70125      4.60871        -0.003339      0.001483      0.000947
      3.34262      1.48650      0.42984        -0.003886     -0.001486     -0.002024
      9.12978      4.63822      2.70306         0.002983      0.001172      0.001911
     20.77792     18.56525     -2.32103        -0.003924     -0.006866      0.000332
      4.17316     23.98761      0.00855        -0.000359      0.002269     -0.009075
      8.29652      6.42250     -0.50245        -0.003780     -0.007459      0.000925
      9.13211     13.55553      2.34529         0.001882     -0.001844     -0.002767
 -----------------------------------------------------------------------------------
    total drift:                                0.000810     -0.019985      0.011853


--------------------------------------------------------------------------------------------------------



  FREE ENERGIE OF THE ION-ELECTRON SYSTEM (eV)
  ---------------------------------------------------
  free  energy   TOTEN  =     -1161.29938555 eV

  energy  without entropy=    -1161.29938555  energy(sigma->0) =    -1161.29938555
 


--------------------------------------------------------------------------------------------------------


    POTLOK:  cpu time    0.2794: real time    0.2814


--------------------------------------------------------------------------------------------------------


 Quasi-Newton relaxation of ions (Broydens 2nd method)
  g(Force)  = 0.219E-03   g(Stress)= 0.187E-04

 Reset! Starting new Quasi-Newton update for ions 


--------------------------------------------------------------------------------------------------------


  
 reached required accuracy - stopping structural energy minimisation
 writing wavefunctions
     LOOP+:  cpu time  339.7807: real time  346.0496
    4ORBIT:  cpu time    0.0000: real time    0.0000

 total amount of memory used by VASP MPI-rank0   103142. kBytes
=======================================================================

   base      :      30000. kBytes
   nonlr-proj:       6207. kBytes
   fftplans  :      13285. kBytes
   grid      :      22747. kBytes
   one-center:        606. kBytes
   wavefun   :      30297. kBytes
 
  
  
 General timing and accounting informations for this job:
 ========================================================
  
                  Total CPU time used (sec):      439.708
                            User time (sec):      376.149
                          System time (sec):       63.559
                         Elapsed time (sec):      447.943
  
                   Maximum memory used (kb):      736748.
                   Average memory used (kb):           0.
  
                          Minor page faults:       260942
                          Major page faults:            7
                 Voluntary context switches:        10224
