       N       E                     dE             d eps       ncg     rms          rms(c)
DAV:   1     0.561824613829E+04    0.56182E+04   -0.26742E+05  4608   0.142E+03
DAV:   2    -0.239997127204E+03   -0.58582E+04   -0.56322E+04  6688   0.321E+02
DAV:   3    -0.125842857801E+04   -0.10184E+04   -0.10113E+04  5408   0.141E+02
DAV:   4    -0.129608920934E+04   -0.37661E+02   -0.37379E+02  6208   0.367E+01
DAV:   5    -0.129715580854E+04   -0.10666E+01   -0.10638E+01  6752   0.562E+00    0.879E+01
DAV:   6    -0.152024627957E+04   -0.22309E+03   -0.28028E+03  6752   0.933E+01    0.225E+02
DAV:   7    -0.142112179468E+04    0.99124E+02   -0.23116E+02  5440   0.314E+01    0.143E+02
DAV:   8    -0.115753536846E+04    0.26359E+03   -0.26945E+02  6336   0.888E+01    0.317E+01
DAV:   9    -0.116953978958E+04   -0.12004E+02   -0.10200E+02  5888   0.181E+01    0.192E+01
DAV:  10    -0.116573663833E+04    0.38032E+01   -0.15718E+01  6112   0.910E+00    0.143E+01
DAV:  11    -0.116659159394E+04   -0.85496E+00   -0.18507E+01  6560   0.113E+01    0.168E+01
DAV:  12    -0.116651535973E+04    0.76234E-01   -0.11057E+01  6752   0.110E+01    0.873E+00
DAV:  13    -0.116685066377E+04   -0.33530E+00   -0.17333E+00  6912   0.547E+00    0.420E+00
DAV:  14    -0.116732057340E+04   -0.46991E+00   -0.36912E-01  6752   0.269E+00    0.288E+00
DAV:  15    -0.116762140495E+04   -0.30083E+00   -0.12831E-01  6752   0.152E+00    0.175E+00
DAV:  16    -0.116786260783E+04   -0.24120E+00   -0.42008E-02  6336   0.739E-01    0.110E+00
DAV:  17    -0.116805499171E+04   -0.19238E+00   -0.41391E-02  6496   0.901E-01    0.761E-01
DAV:  18    -0.116824622576E+04   -0.19123E+00   -0.71475E-02  6464   0.112E+00    0.536E-01
DAV:  19    -0.116838845102E+04   -0.14223E+00   -0.67674E-02  6208   0.731E-01    0.551E-01
DAV:  20    -0.116847947677E+04   -0.91026E-01   -0.26877E-02  5984   0.416E-01    0.441E-01
DAV:  21    -0.116860720593E+04   -0.12773E+00   -0.18836E-02  5696   0.360E-01    0.473E-01
DAV:  22    -0.116871506906E+04   -0.10786E+00   -0.12430E-02  6176   0.332E-01    0.371E-01
DAV:  23    -0.116878994033E+04   -0.74871E-01   -0.61502E-03  5952   0.219E-01    0.195E-01
DAV:  24    -0.116883049327E+04   -0.40553E-01   -0.29211E-03  5856   0.131E-01    0.142E-01
DAV:  25    -0.116885312575E+04   -0.22632E-01   -0.18045E-03  5856   0.109E-01    0.860E-02
DAV:  26    -0.116886855695E+04   -0.15431E-01   -0.17195E-03  6272   0.123E-01    0.106E-01
DAV:  27    -0.116887578832E+04   -0.72314E-02   -0.94079E-04  6048   0.719E-02    0.521E-02
DAV:  28    -0.116887838298E+04   -0.25947E-02   -0.21785E-04  5984   0.401E-02    0.292E-02
DAV:  29    -0.116888054080E+04   -0.21578E-02   -0.19137E-04  5344   0.217E-02    0.235E-02
DAV:  30    -0.116888152835E+04   -0.98755E-03   -0.70165E-05  5760   0.139E-02    0.196E-02
DAV:  31    -0.116888225720E+04   -0.72886E-03   -0.39133E-05  5600   0.149E-02    0.985E-03
DAV:  32    -0.116888270229E+04   -0.44509E-03   -0.26637E-05  5248   0.765E-03    0.739E-03
DAV:  33    -0.116888297036E+04   -0.26807E-03   -0.10726E-05  5024   0.526E-03    0.383E-03
DAV:  34    -0.116888316400E+04   -0.19364E-03   -0.91646E-06  4992   0.471E-03    0.357E-03
DAV:  35    -0.116888323912E+04   -0.75112E-04   -0.23718E-06  4800   0.277E-03    0.224E-03
DAV:  36    -0.116888328854E+04   -0.49421E-04   -0.10148E-06  3808   0.157E-03    0.158E-03
DAV:  37    -0.116888333038E+04   -0.41840E-04   -0.88630E-07  4064   0.157E-03    0.971E-04
DAV:  38    -0.116888335194E+04   -0.21562E-04   -0.25310E-07  3648   0.919E-04    0.758E-04
DAV:  39    -0.116888336438E+04   -0.12445E-04   -0.17524E-07  3648   0.729E-04    0.501E-04
DAV:  40    -0.116888337457E+04   -0.10190E-04   -0.14930E-07  3648   0.695E-04    0.335E-04
DAV:  41    -0.116888338160E+04   -0.70276E-05   -0.14635E-07  3648   0.655E-04    0.273E-04
DAV:  42    -0.116888338395E+04   -0.23528E-05   -0.62229E-08  3264   0.473E-04    0.268E-04
DAV:  43    -0.116888338566E+04   -0.17065E-05   -0.41965E-08  3520   0.336E-04    0.216E-04
DAV:  44    -0.116888338658E+04   -0.92371E-06   -0.24205E-08  3264   0.298E-04
   1 F= -.11790380E+04 E0= -.11790350E+04  d E =-.117904E+04  mag=     0.0001
