 vasp.6.0.8 29Jun18 (build Mar 14 2019 11:44:20) complex                        
  
 executed on             LinuxIFC date 2020.12.29  12:22:56
 running  128 mpi-ranks, with    1 threads/rank
 distrk:  each k-point on  128 cores,    1 groups
 distr:  one band on NCORES_PER_BAND=   4 cores,   32 groups


--------------------------------------------------------------------------------------------------------


 INCAR:
 POTCAR:    PAW_PBE C 08Apr2002                   
 POTCAR:    PAW_PBE Co 02Aug2007                  
 POTCAR:    PAW_PBE H 15Jun2001                   
 POTCAR:    PAW_PBE N 08Apr2002                   
 POTCAR:    PAW_PBE O 08Apr2002                   
 POTCAR:    PAW_PBE C 08Apr2002                   
   VRHFIN =C: s2p2                                                              
   LEXCH  = PE                                                                  
   EATOM  =   147.1560 eV,   10.8157 Ry                                         
                                                                                
   TITEL  = PAW_PBE C 08Apr2002                                                 
   LULTRA =        F    use ultrasoft PP ?                                      
   IUNSCR =        1    unscreen: 0-lin 1-nonlin 2-no                           
   RPACOR =    1.200    partial core radius                                     
   POMASS =   12.011; ZVAL   =    4.000    mass and valenz                      
   RCORE  =    1.500    outmost cutoff radius                                   
   RWIGS  =    1.630; RWIGS  =    0.863    wigner-seitz radius (au A)           
   ENMAX  =  400.000; ENMIN  =  300.000 eV                                      
   ICORE  =        2    local potential                                         
   LCOR   =        T    correct aug charges                                     
   LPAW   =        T    paw PP                                                  
   EAUG   =  644.873                                                            
   DEXC   =    0.000                                                            
   RMAX   =    1.529    core radius for proj-oper                               
   RAUG   =    1.300    factor for augmentation sphere                          
   RDEP   =    1.501    radius for radial grids                                 
   RDEPT  =    1.300    core radius for aug-charge                              
                                                                                
   Atomic configuration                                                         
    4 entries                                                                   
     n  l   j            E        occ.                                          
     1  0  0.50      -273.3789   2.0000                                         
     2  0  0.50       -13.7508   2.0000                                         
     2  1  0.50        -5.2854   2.0000                                         
     3  2  1.50        -5.4423   0.0000                                         
   Description                                                                  
     l       E           TYP  RCUT    TYP  RCUT                                 
     0    -13.7508458     23  1.200                                             
     0     -8.2022199     23  1.200                                             
     1     -5.2854383     23  1.500                                             
     1     34.0145650     23  1.500                                             
     2     -5.4423304      7  1.500                                             
  local pseudopotential read in
  partial core-charges read in
  partial kinetic energy density read in
  atomic valenz-charges read in
  non local Contribution for L=           0  read in
    real space projection operators read in
  non local Contribution for L=           0  read in
    real space projection operators read in
  non local Contribution for L=           1  read in
    real space projection operators read in
  non local Contribution for L=           1  read in
    real space projection operators read in
    PAW grid and wavefunctions read in
 
   number of l-projection  operators is LMAX  =           4
   number of lm-projection operators is LMMAX =           8
 
 POTCAR:    PAW_PBE Co 02Aug2007                  
   VRHFIN =Co: d8 s1                                                            
   LEXCH  = PE                                                                  
   EATOM  =   813.3670 eV,   59.7808 Ry                                         
                                                                                
   TITEL  = PAW_PBE Co 02Aug2007                                                
   LULTRA =        F    use ultrasoft PP ?                                      
   IUNSCR =        1    unscreen: 0-lin 1-nonlin 2-no                           
   RPACOR =    2.000    partial core radius                                     
   POMASS =   58.933; ZVAL   =    9.000    mass and valenz                      
   RCORE  =    2.300    outmost cutoff radius                                   
   RWIGS  =    2.460; RWIGS  =    1.302    wigner-seitz radius (au A)           
   ENMAX  =  267.968; ENMIN  =  200.976 eV                                      
   RCLOC  =    1.203    cutoff for local pot                                    
   LCOR   =        T    correct aug charges                                     
   LPAW   =        T    paw PP                                                  
   EAUG   =  477.818                                                            
   DEXC   =    0.000                                                            
   RMAX   =    2.360    core radius for proj-oper                               
   RAUG   =    1.300    factor for augmentation sphere                          
   RDEP   =    2.393    radius for radial grids                                 
   RDEPT  =    1.864    core radius for aug-charge                              
                                                                                
   Atomic configuration                                                         
    9 entries                                                                   
     n  l   j            E        occ.                                          
     1  0  0.50     -7587.6674   2.0000                                         
     2  0  0.50      -893.6084   2.0000                                         
     2  1  1.50      -764.5805   6.0000                                         
     3  0  0.50       -97.5973   2.0000                                         
     3  1  1.50       -60.9648   6.0000                                         
     3  2  2.50        -4.2382   8.0000                                         
     4  0  0.50        -4.3746   1.0000                                         
     4  1  1.50        -4.0817   0.0000                                         
     4  3  2.50        -1.3606   0.0000                                         
   Description                                                                  
     l       E           TYP  RCUT    TYP  RCUT                                 
     2     -4.2382362     23  2.300                                             
     2     -5.5988188     23  2.300                                             
     0     -4.3745797     23  2.300                                             
     0      5.7660125     23  2.300                                             
     1     -2.7211652     23  2.300                                             
     1     16.9860234     23  2.300                                             
  local pseudopotential read in
  partial core-charges read in
  partial kinetic energy density read in
  atomic valenz-charges read in
  non local Contribution for L=           2  read in
    real space projection operators read in
  non local Contribution for L=           2  read in
    real space projection operators read in
  non local Contribution for L=           0  read in
    real space projection operators read in
  non local Contribution for L=           0  read in
    real space projection operators read in
  non local Contribution for L=           1  read in
    real space projection operators read in
  non local Contribution for L=           1  read in
    real space projection operators read in
    PAW grid and wavefunctions read in
 
   number of l-projection  operators is LMAX  =           6
   number of lm-projection operators is LMMAX =          18
 
 POTCAR:    PAW_PBE H 15Jun2001                   
   VRHFIN =H: ultrasoft test                                                    
   LEXCH  = PE                                                                  
   EATOM  =    12.4884 eV,    0.9179 Ry                                         
                                                                                
   TITEL  = PAW_PBE H 15Jun2001                                                 
   LULTRA =        F    use ultrasoft PP ?                                      
   IUNSCR =        0    unscreen: 0-lin 1-nonlin 2-no                           
   RPACOR =    0.000    partial core radius                                     
   POMASS =    1.000; ZVAL   =    1.000    mass and valenz                      
   RCORE  =    1.100    outmost cutoff radius                                   
   RWIGS  =    0.700; RWIGS  =    0.370    wigner-seitz radius (au A)           
   ENMAX  =  250.000; ENMIN  =  200.000 eV                                      
   RCLOC  =    0.701    cutoff for local pot                                    
   LCOR   =        T    correct aug charges                                     
   LPAW   =        T    paw PP                                                  
   EAUG   =  400.000                                                            
   RMAX   =    1.123    core radius for proj-oper                               
   RAUG   =    1.200    factor for augmentation sphere                          
   RDEP   =    1.112    radius for radial grids                                 
   RDEPT  =    0.926    core radius for aug-charge                              
                                                                                
   Atomic configuration                                                         
    2 entries                                                                   
     n  l   j            E        occ.                                          
     1  0  0.50        -6.4927   1.0000                                         
     2  1  0.50        -3.4015   0.0000                                         
   Description                                                                  
     l       E           TYP  RCUT    TYP  RCUT                                 
     0     -6.4927494     23  1.100                                             
     0      6.8029130     23  1.100                                             
     1     -4.0817478     23  1.100                                             
  local pseudopotential read in
  atomic valenz-charges read in
  non local Contribution for L=           0  read in
    real space projection operators read in
  non local Contribution for L=           0  read in
    real space projection operators read in
  non local Contribution for L=           1  read in
    real space projection operators read in
    PAW grid and wavefunctions read in
 
   number of l-projection  operators is LMAX  =           3
   number of lm-projection operators is LMMAX =           5
 
 POTCAR:    PAW_PBE N 08Apr2002                   
   VRHFIN =N: s2p3                                                              
   LEXCH  = PE                                                                  
   EATOM  =   264.5486 eV,   19.4438 Ry                                         
                                                                                
   TITEL  = PAW_PBE N 08Apr2002                                                 
   LULTRA =        F    use ultrasoft PP ?                                      
   IUNSCR =        1    unscreen: 0-lin 1-nonlin 2-no                           
   RPACOR =    1.200    partial core radius                                     
   POMASS =   14.001; ZVAL   =    5.000    mass and valenz                      
   RCORE  =    1.500    outmost cutoff radius                                   
   RWIGS  =    1.400; RWIGS  =    0.741    wigner-seitz radius (au A)           
   ENMAX  =  400.000; ENMIN  =  300.000 eV                                      
   ICORE  =        2    local potential                                         
   LCOR   =        T    correct aug charges                                     
   LPAW   =        T    paw PP                                                  
   EAUG   =  627.112                                                            
   DEXC   =    0.000                                                            
   RMAX   =    1.529    core radius for proj-oper                               
   RAUG   =    1.300    factor for augmentation sphere                          
   RDEP   =    1.514    radius for radial grids                                 
   RDEPT  =    1.338    core radius for aug-charge                              
                                                                                
   Atomic configuration                                                         
    4 entries                                                                   
     n  l   j            E        occ.                                          
     1  0  0.50      -384.7179   2.0000                                         
     2  0  0.50       -18.5828   2.0000                                         
     2  1  0.50        -7.0898   3.0000                                         
     3  2  1.50        -6.8029   0.0000                                         
   Description                                                                  
     l       E           TYP  RCUT    TYP  RCUT                                 
     0    -18.5828119     23  1.200                                             
     0    -13.5018863     23  1.200                                             
     1     -7.0897853     23  1.500                                             
     1      9.5240782     23  1.500                                             
     2     -6.8029130      7  1.500                                             
  local pseudopotential read in
  partial core-charges read in
  partial kinetic energy density read in
  atomic valenz-charges read in
  non local Contribution for L=           0  read in
    real space projection operators read in
  non local Contribution for L=           0  read in
    real space projection operators read in
  non local Contribution for L=           1  read in
    real space projection operators read in
  non local Contribution for L=           1  read in
    real space projection operators read in
    PAW grid and wavefunctions read in
 
   number of l-projection  operators is LMAX  =           4
   number of lm-projection operators is LMMAX =           8
 
 POTCAR:    PAW_PBE O 08Apr2002                   
   VRHFIN =O: s2p4                                                              
   LEXCH  = PE                                                                  
   EATOM  =   432.3788 eV,   31.7789 Ry                                         
                                                                                
   TITEL  = PAW_PBE O 08Apr2002                                                 
   LULTRA =        F    use ultrasoft PP ?                                      
   IUNSCR =        1    unscreen: 0-lin 1-nonlin 2-no                           
   RPACOR =    1.200    partial core radius                                     
   POMASS =   16.000; ZVAL   =    6.000    mass and valenz                      
   RCORE  =    1.520    outmost cutoff radius                                   
   RWIGS  =    1.550; RWIGS  =    0.820    wigner-seitz radius (au A)           
   ENMAX  =  400.000; ENMIN  =  300.000 eV                                      
   ICORE  =        2    local potential                                         
   LCOR   =        T    correct aug charges                                     
   LPAW   =        T    paw PP                                                  
   EAUG   =  605.392                                                            
   DEXC   =    0.000                                                            
   RMAX   =    1.553    core radius for proj-oper                               
   RAUG   =    1.300    factor for augmentation sphere                          
   RDEP   =    1.550    radius for radial grids                                 
   RDEPT  =    1.329    core radius for aug-charge                              
                                                                                
   Atomic configuration                                                         
    4 entries                                                                   
     n  l   j            E        occ.                                          
     1  0  0.50      -514.6923   2.0000                                         
     2  0  0.50       -23.9615   2.0000                                         
     2  1  0.50        -9.0305   4.0000                                         
     3  2  1.50        -9.5241   0.0000                                         
   Description                                                                  
     l       E           TYP  RCUT    TYP  RCUT                                 
     0    -23.9615318     23  1.200                                             
     0     -9.5240782     23  1.200                                             
     1     -9.0304911     23  1.520                                             
     1      8.1634956     23  1.520                                             
     2     -9.5240782      7  1.500                                             
  local pseudopotential read in
  partial core-charges read in
  partial kinetic energy density read in
  kinetic energy density of atom read in
  atomic valenz-charges read in
  non local Contribution for L=           0  read in
    real space projection operators read in
  non local Contribution for L=           0  read in
    real space projection operators read in
  non local Contribution for L=           1  read in
    real space projection operators read in
  non local Contribution for L=           1  read in
    real space projection operators read in
    PAW grid and wavefunctions read in
 
   number of l-projection  operators is LMAX  =           4
   number of lm-projection operators is LMMAX =           8
 
 Optimization of the real space projectors (new method)

 maximal supplied QI-value         = 25.13
 optimisation between [QCUT,QGAM] = [ 12.32, 24.88] = [ 42.47,173.37] Ry 
 Optimized for a Real-space Cutoff    1.06 Angstroem

   l    n(q)    QCUT    max X(q) W(low)/X(q) W(high)/X(q)  e(spline) 
   0      8    12.315   115.676    0.34E-03    0.18E-03    0.23E-06
   0      8    12.315    87.132    0.34E-03    0.18E-03    0.22E-06
   1      7    12.315     4.429    0.45E-03    0.12E-03    0.18E-06
   1      7    12.315     2.733    0.35E-03    0.97E-04    0.15E-06
 Optimization of the real space projectors (new method)

 maximal supplied QI-value         = 16.25
 optimisation between [QCUT,QGAM] = [ 12.51, 25.03] = [ 43.85,175.40] Ry 
 Optimized for a Real-space Cutoff    1.31 Angstroem

   l    n(q)    QCUT    max X(q) W(low)/X(q) W(high)/X(q)  e(spline) 
   2      9    12.514    65.824    0.30E-03    0.46E-03    0.43E-06
   2      9    12.514    61.429    0.31E-03    0.46E-03    0.44E-06
   0     10    12.514    56.174    0.90E-04    0.33E-03    0.30E-06
   0     10    12.514    31.263    0.81E-04    0.30E-03    0.28E-06
   1      9    12.514    19.828    0.38E-03    0.65E-04    0.24E-06
   1      9    12.514    15.139    0.32E-03    0.60E-04    0.20E-06
 Optimization of the real space projectors (new method)

 maximal supplied QI-value         = 34.20
 optimisation between [QCUT,QGAM] = [ 12.31, 24.97] = [ 42.46,174.58] Ry 
 Optimized for a Real-space Cutoff    1.00 Angstroem

   l    n(q)    QCUT    max X(q) W(low)/X(q) W(high)/X(q)  e(spline) 
   0      7    12.313    19.460    0.14E-03    0.42E-03    0.16E-06
   0      7    12.313    12.209    0.12E-03    0.40E-03    0.16E-06
   1      7    12.313     4.655    0.33E-03    0.59E-03    0.89E-07
 Optimization of the real space projectors (new method)

 maximal supplied QI-value         = 25.13
 optimisation between [QCUT,QGAM] = [ 12.32, 24.88] = [ 42.47,173.37] Ry 
 Optimized for a Real-space Cutoff    1.20 Angstroem

   l    n(q)    QCUT    max X(q) W(low)/X(q) W(high)/X(q)  e(spline) 
   0      9    12.315    79.467    0.14E-03    0.22E-04    0.37E-06
   0      9    12.315    66.151    0.14E-03    0.23E-04    0.36E-06
   1      8    12.315    22.077    0.30E-03    0.54E-03    0.45E-06
   1      8    12.315    15.894    0.30E-03    0.55E-03    0.45E-06
 Optimization of the real space projectors (new method)

 maximal supplied QI-value         = 24.76
 optimisation between [QCUT,QGAM] = [ 12.38, 25.00] = [ 42.90,175.06] Ry 
 Optimized for a Real-space Cutoff    1.13 Angstroem

   l    n(q)    QCUT    max X(q) W(low)/X(q) W(high)/X(q)  e(spline) 
   0      8    12.378    20.381    0.16E-03    0.54E-05    0.27E-06
   0      8    12.378    15.268    0.17E-03    0.61E-05    0.29E-06
   1      8    12.378     5.964    0.38E-03    0.23E-03    0.28E-06
   1      8    12.378     5.382    0.33E-03    0.20E-03    0.25E-06
  PAW_PBE C 08Apr2002                   :
 energy of atom  1       EATOM= -147.1560
 kinetic energy error for atom=    0.0057 (will be added to EATOM!!)
  PAW_PBE Co 02Aug2007                  :
 energy of atom  2       EATOM= -813.3670
 kinetic energy error for atom=    0.0018 (will be added to EATOM!!)
  PAW_PBE H 15Jun2001                   :
 energy of atom  3       EATOM=  -12.4884
 kinetic energy error for atom=    0.0004 (will be added to EATOM!!)
  PAW_PBE N 08Apr2002                   :
 energy of atom  4       EATOM= -264.5486
 kinetic energy error for atom=    0.0103 (will be added to EATOM!!)
  PAW_PBE O 08Apr2002                   :
 energy of atom  5       EATOM= -432.3788
 kinetic energy error for atom=    0.0168 (will be added to EATOM!!)
 
 
 POSCAR: CoH_exp7	
  positions in direct lattice
  velocities in cartesian coordinates
 exchange correlation table for  LEXCH =        8
   RHO(1)=    0.500       N(1)  =     2000
   RHO(2)=  100.500       N(2)  =     4000
 


--------------------------------------------------------------------------------------------------------


 ion  position               nearest neighbor table
   1  0.901  0.968  0.114- 107 1.09 117 1.35  65 1.40
   2  0.934  0.982  0.402- 112 1.08 118 1.35  65 1.40
   3  0.901  0.812  0.939- 116 1.09 119 1.35  66 1.40
   4  0.599  0.469  0.613- 110 1.09 120 1.35  67 1.40
   5  0.566  0.298  0.151- 111 1.08 121 1.35  68 1.40
   6  0.066  0.798  0.152- 115 1.08 122 1.35  69 1.40
   7  0.566  0.483  0.901- 101 1.08 123 1.35  67 1.40
   8  0.599  0.312  0.438- 113 1.09 124 1.35  68 1.40
   9  0.434  0.482  0.401- 114 1.08 125 1.35  70 1.40
  10  0.099  0.812  0.439- 104 1.09 126 1.35  69 1.40
  11  0.066  0.982  0.902- 105 1.08 127 1.35  71 1.40
  12  0.434  0.298  0.650- 102 1.08 128 1.35  72 1.40
  13  0.934  0.798  0.652- 108 1.08 129 1.35  66 1.40
  14  0.099  0.968  0.614- 109 1.09 130 1.35  71 1.40
  15  0.401  0.312  0.938- 106 1.09 131 1.35  72 1.40
  16  0.401  0.468  0.113- 103 1.09 132 1.35  70 1.40
  17  0.824  0.034  0.448- 141 1.23 133 1.42  33 1.48
  18  0.842  0.082  0.083- 142 1.23 133 1.42  34 1.48
  19  0.842  0.698  0.971- 143 1.23 134 1.42  35 1.48
  20  0.658  0.582  0.582- 144 1.23 135 1.42  36 1.48
  21  0.658  0.198  0.470- 145 1.23 136 1.42  37 1.48
  22  0.176  0.746  0.106- 146 1.23 137 1.42  38 1.48
  23  0.676  0.534  0.947- 147 1.23 135 1.42  39 1.48
  24  0.677  0.246  0.105- 148 1.23 136 1.42  40 1.48
  25  0.323  0.534  0.447- 149 1.23 138 1.42  41 1.48
  26  0.158  0.698  0.471- 150 1.23 137 1.42  42 1.48
  27  0.158  0.082  0.583- 151 1.23 139 1.42  43 1.48
  28  0.342  0.198  0.970- 152 1.23 140 1.42  44 1.48
  29  0.823  0.746  0.606- 153 1.23 134 1.42  45 1.48
  30  0.176  0.034  0.948- 154 1.23 139 1.42  46 1.48
  31  0.323  0.246  0.605- 155 1.23 140 1.42  47 1.48
  32  0.342  0.582  0.082- 156 1.23 138 1.42  48 1.48
  33  0.781  0.076  0.449-  49 1.39  73 1.42  17 1.48
  34  0.800  0.124  0.094-  50 1.39  73 1.41  18 1.48
  35  0.800  0.656  0.960-  51 1.39  74 1.42  19 1.48
  36  0.700  0.624  0.593-  52 1.39  75 1.41  20 1.48
  37  0.700  0.156  0.460-  53 1.39  76 1.42  21 1.48
  38  0.219  0.704  0.105-  54 1.39  77 1.42  22 1.48
  39  0.719  0.576  0.949-  55 1.39  75 1.42  23 1.48
  40  0.719  0.204  0.104-  56 1.39  76 1.41  24 1.48
  41  0.280  0.576  0.449-  57 1.39  78 1.42  25 1.48
  42  0.200  0.656  0.460-  58 1.39  77 1.42  26 1.48
  43  0.200  0.124  0.593-  59 1.39  79 1.41  27 1.48
  44  0.300  0.156  0.960-  60 1.39  80 1.42  28 1.48
  45  0.781  0.704  0.604-  61 1.39  74 1.42  29 1.48
  46  0.219  0.076  0.949-  62 1.39  79 1.42  30 1.48
  47  0.281  0.204  0.604-  63 1.39  80 1.42  31 1.48
  48  0.300  0.624  0.093-  64 1.39  78 1.41  32 1.48
  49  0.751  0.073  0.624-  88 1.09  33 1.39  53 1.41
  50  0.790  0.168  0.924-  99 1.09  34 1.39  56 1.40
  51  0.790  0.613  0.129-  93 1.09  35 1.39  55 1.41
  52  0.710  0.668  0.424-  90 1.09  36 1.39  61 1.41
  53  0.710  0.113  0.629-  98 1.09  37 1.39  49 1.41
  54  0.249  0.707  0.929-  96 1.09  38 1.39  64 1.41
  55  0.749  0.573  0.124-  86 1.09  39 1.39  51 1.41
  56  0.750  0.207  0.929-  87 1.09  40 1.39  50 1.40
  57  0.250  0.573  0.624-  95 1.09  41 1.39  58 1.41
  58  0.210  0.612  0.629-  91 1.09  42 1.39  57 1.41
  59  0.210  0.168  0.424-  92 1.09  43 1.39  63 1.41
  60  0.290  0.113  0.129-  85 1.09  44 1.39  62 1.41
  61  0.751  0.707  0.429-  89 1.09  45 1.39  52 1.41
  62  0.249  0.073  0.124- 100 1.09  46 1.39  60 1.41
  63  0.251  0.207  0.429-  94 1.09  47 1.39  59 1.41
  64  0.289  0.667  0.924-  97 1.09  48 1.39  54 1.41
  65  0.893  1.000  0.258-   2 1.40   1 1.40 133 1.42
  66  0.893  0.781  0.795-  13 1.40   3 1.40 134 1.42
  67  0.607  0.500  0.758-   7 1.40   4 1.40 135 1.42
  68  0.607  0.281  0.294-   5 1.40   8 1.40 136 1.42
  69  0.107  0.780  0.295-   6 1.40  10 1.40 137 1.42
  70  0.393  0.499  0.257-   9 1.40  16 1.40 138 1.42
  71  0.107  1.000  0.759-  11 1.40  14 1.40 139 1.42
  72  0.393  0.281  0.794-  12 1.40  15 1.40 140 1.42
  73  0.771  0.120  0.274-  34 1.41  33 1.42  76 1.43
  74  0.770  0.660  0.779-  35 1.42  45 1.42  75 1.43
  75  0.729  0.620  0.774-  36 1.41  39 1.42  74 1.43
  76  0.730  0.160  0.279-  40 1.41  37 1.42  73 1.43
  77  0.229  0.660  0.279-  42 1.42  38 1.42  78 1.43
  78  0.270  0.620  0.274-  48 1.41  41 1.42  77 1.43
  79  0.230  0.120  0.774-  43 1.41  46 1.42  80 1.43
  80  0.270  0.160  0.779-  47 1.42  44 1.42  79 1.43
  81  0.987  0.890  0.027- 119 1.96 117 1.96 122 1.97 127 1.97
  82  0.013  0.890  0.527- 126 1.96 130 1.96 118 1.97 129 1.97
  83  0.513  0.390  0.526- 124 1.96 120 1.96 125 1.96 128 1.96
  84  0.487  0.390  0.026- 131 1.96 132 1.96 123 1.96 121 1.97
  85  0.313  0.110  0.266-  60 1.09
  86  0.741  0.539  0.256-  55 1.09
  87  0.741  0.241  0.796-  56 1.09
  88  0.759  0.039  0.757-  49 1.09
  89  0.759  0.741  0.296-  61 1.09
  90  0.687  0.670  0.287-  52 1.09
  91  0.186  0.610  0.766-  58 1.09
  92  0.187  0.170  0.287-  59 1.09
  93  0.813  0.610  0.266-  51 1.09
  94  0.259  0.241  0.296-  63 1.09
  95  0.259  0.539  0.756-  57 1.09
  96  0.240  0.741  0.797-  54 1.09
  97  0.313  0.670  0.787-  64 1.09
  98  0.687  0.110  0.766-  53 1.09
  99  0.814  0.170  0.787-  50 1.09
 100  0.241  0.039  0.257-  62 1.09
 101  0.557  0.495  0.039-   7 1.08
 102  0.443  0.285  0.513-  12 1.08
 103  0.379  0.469  0.974-  16 1.09
 104  0.121  0.810  0.579-  10 1.09
 105  0.057  0.995  0.040-  11 1.08
 106  0.379  0.311  0.078-  15 1.09
 107  0.879  0.970  0.975-   1 1.09
 108  0.943  0.785  0.514-  13 1.08
 109  0.121  0.970  0.475-  14 1.09
 110  0.621  0.470  0.474-   4 1.09
 111  0.557  0.285  0.013-   5 1.08
 112  0.943  0.995  0.540-   2 1.08
 113  0.621  0.311  0.578-   8 1.09
 114  0.442  0.495  0.539-   9 1.08
 115  0.057  0.785  0.014-   6 1.08
 116  0.879  0.811  0.079-   3 1.09
 117  0.944  0.934  0.171-   1 1.35 118 1.37  81 1.96
 118  0.964  0.943  0.348-   2 1.35 117 1.37  82 1.97
 119  0.944  0.846  0.882-   3 1.35 129 1.37  81 1.96
 120  0.556  0.434  0.670-   4 1.35 123 1.37  83 1.96
 121  0.536  0.337  0.205-   5 1.35 124 1.37  84 1.97
 122  0.036  0.837  0.206-   6 1.35 126 1.37  81 1.97
 123  0.536  0.443  0.846-   7 1.35 120 1.37  84 1.96
 124  0.556  0.346  0.381-   8 1.35 121 1.37  83 1.96
 125  0.464  0.443  0.346-   9 1.35 132 1.37  83 1.96
 126  0.056  0.846  0.382-  10 1.35 122 1.37  82 1.96
 127  0.036  0.943  0.848-  11 1.35 130 1.37  81 1.97
 128  0.464  0.337  0.705-  12 1.35 131 1.37  83 1.96
 129  0.964  0.837  0.706-  13 1.35 119 1.37  82 1.97
 130  0.056  0.934  0.671-  14 1.35 127 1.37  82 1.96
 131  0.444  0.346  0.881-  15 1.35 128 1.37  84 1.96
 132  0.444  0.434  0.170-  16 1.35 125 1.37  84 1.96
 133  0.852  0.040  0.263-  18 1.42  17 1.42  65 1.42
 134  0.852  0.741  0.791-  19 1.42  29 1.42  66 1.42
 135  0.648  0.540  0.762-  20 1.42  23 1.42  67 1.42
 136  0.648  0.241  0.290-  21 1.42  24 1.42  68 1.42
 137  0.148  0.740  0.291-  26 1.42  22 1.42  69 1.42
 138  0.352  0.539  0.262-  32 1.42  25 1.42  70 1.42
 139  0.148  0.040  0.763-  27 1.42  30 1.42  71 1.42
 140  0.352  0.240  0.790-  28 1.42  31 1.42  72 1.42
 141  0.834  0.997  0.598-  17 1.23
 142  0.868  0.083  0.926-  18 1.23
 143  0.867  0.697  0.127-  19 1.23
 144  0.633  0.583  0.426-  20 1.23
 145  0.633  0.197  0.627-  21 1.23
 146  0.166  0.783  0.956-  22 1.23
 147  0.666  0.497  0.097-  23 1.23
 148  0.666  0.284  0.955-  24 1.23
 149  0.334  0.496  0.597-  25 1.23
 150  0.132  0.697  0.628-  26 1.23
 151  0.133  0.083  0.426-  27 1.23
 152  0.367  0.197  0.127-  28 1.23
 153  0.834  0.784  0.455-  29 1.23
 154  0.166  0.997  0.098-  30 1.23
 155  0.334  0.284  0.455-  31 1.23
 156  0.367  0.583  0.925-  32 1.23
 

IMPORTANT INFORMATION: All symmetrisations will be switched off!
NOSYMM: (Re-)initialisation of all symmetry stuff for point group C_1.


----------------------------------------------------------------------------------------

                                     Primitive cell                                     

  volume of cell :    4029.8966

  direct lattice vectors                    reciprocal lattice vectors
    24.765974579  0.000219106 -0.003361525     0.040377979 -0.000001605  0.000002613
     0.000702139 24.337421087  4.095264985    -0.000000852  0.041687605 -0.003557472
    -0.000415943  0.578868529  6.783368730     0.000020524 -0.025167701  0.149567101

  length of vectors
    24.765974809 24.679571734  6.808023228     0.040377979  0.041839120  0.151669810

  position of ions in fractional coordinates (direct lattice)
     0.900947513  0.968484726  0.114328247
     0.934143907  0.982486656  0.402319755
     0.900765750  0.811873104  0.939114142
     0.598994109  0.468510322  0.613333534
     0.565996477  0.297706745  0.150607324
     0.065754559  0.797519756  0.151599451
     0.565854420  0.482531631  0.901324726
     0.599167741  0.311949505  0.438309491
     0.433900420  0.482384518  0.401243362
     0.099030665  0.811656983  0.439290137
     0.065884723  0.982435209  0.902338754
     0.434103051  0.297572384  0.650497558
     0.934003906  0.797614878  0.651581293
     0.099076801  0.968349704  0.614499580
     0.400879966  0.311796536  0.938112049
     0.400752281  0.468245104  0.113356325
     0.823594774  0.034465783  0.447847193
     0.842376647  0.082132436  0.082871732
     0.842085676  0.698221440  0.970731663
     0.657672671  0.582135802  0.582204394
     0.657867501  0.198311013  0.470356926
     0.176295810  0.745633581  0.105868641
     0.676392361  0.534431882  0.947195331
     0.676665507  0.245955530  0.105299249
     0.323250748  0.534066619  0.447158658
     0.157572860  0.697912085  0.470862937
     0.157670557  0.081981104  0.582853112
     0.342231173  0.198164488  0.970188370
     0.823360897  0.745921446  0.605673218
     0.176441587  0.034397631  0.947955497
     0.323419373  0.245786697  0.605112385
     0.341924402  0.581814588  0.082206584
     0.780814294  0.076481658  0.448906330
     0.800379754  0.124179910  0.093540186
     0.800077871  0.656205781  0.959844579
     0.699680161  0.624157613  0.593121312
     0.699885997  0.156282471  0.459724895
     0.219052797  0.703626130  0.104547335
     0.719186702  0.576416430  0.948515020
     0.719453735  0.203957782  0.104275615
     0.280421550  0.576023967  0.448529544
     0.199529530  0.655835799  0.459915532
     0.199666127  0.124032796  0.593489630
     0.300205913  0.156143703  0.959610671
     0.780589043  0.703928725  0.604348202
     0.219251375  0.076380360  0.948939552
     0.280636786  0.203781492  0.604099482
     0.299918970  0.623828512  0.093232716
     0.750677721  0.073050299  0.623861734
     0.789906939  0.167723563  0.924043852
     0.789601359  0.612613119  0.129172904
     0.710182810  0.667716251  0.423729026
     0.710353331  0.112715380  0.629156091
     0.249132931  0.707080581  0.929430986
     0.749287187  0.572957168  0.123636749
     0.749564506  0.207364053  0.929256687
     0.250320014  0.572552139  0.623612409
     0.210003033  0.612209638  0.629175822
     0.210143367  0.167554557  0.423939526
     0.289741689  0.112607598  0.129143330
     0.750522486  0.707350216  0.429160624
     0.249399605  0.072958051  0.123915641
     0.250513644  0.207177508  0.429087544
     0.289457797  0.667438474  0.923966909
     0.893211803  0.999694642  0.258485083
     0.893002169  0.780593892  0.795199916
     0.606790197  0.499697535  0.757548747
     0.606969454  0.280673466  0.294413882
     0.106720888  0.780377030  0.295352279
     0.392932097  0.499463733  0.257470351
     0.106829315  0.999587450  0.758581757
     0.393132894  0.280502984  0.794229635
     0.770564233  0.120079241  0.273912414
     0.770300831  0.660340157  0.779294795
     0.729466567  0.620027255  0.773615801
     0.729709465  0.160392798  0.279325057
     0.229312056  0.659990695  0.279407014
     0.270133554  0.619664602  0.273694477
     0.229506001  0.119936345  0.773854553
     0.270377368  0.160234039  0.779198061
     0.987044541  0.890046689  0.026849674
     0.012890290  0.889994435  0.526887527
     0.512826662  0.390091234  0.525736429
     0.487100732  0.390070314  0.025602780
     0.313344691  0.110296830  0.266073544
     0.740531071  0.539048375  0.256350783
     0.740769239  0.241239899  0.796453573
     0.759402845  0.039130997  0.756589381
     0.759327738  0.741230576  0.296390496
     0.686631730  0.670039915  0.286673043
     0.186435961  0.609825836  0.766219287
     0.186551638  0.169868987  0.286970892
     0.813171108  0.610254010  0.266220517
     0.259311470  0.241029089  0.296222356
     0.259060253  0.538610610  0.756274382
     0.240354315  0.740995619  0.796737928
     0.313056752  0.669787770  0.787032589
     0.686769944  0.110378050  0.766126492
     0.813504389  0.170033744  0.787135481
     0.240674274  0.039072775  0.256738542
     0.557385691  0.495313938  0.039491912
     0.442636148  0.284693824  0.512577387
     0.379064623  0.469383407  0.973744534
     0.120719769  0.810496167  0.578913906
     0.057389234  0.995253052  0.040411662
     0.379207664  0.310648150  0.077705475
     0.879246555  0.969688458  0.974711793
     0.942503162  0.784718343  0.513690317
     0.120769086  0.969529517  0.474906126
     0.620671949  0.469716792  0.473702346
     0.557492206  0.284814306  0.012688274
     0.942642536  0.995260370  0.540480704
     0.620814214  0.310834577  0.577981946
     0.442358370  0.495204833  0.539347591
     0.057205664  0.784651619  0.013676839
     0.879093098  0.810777282  0.078694194
     0.943760591  0.934350348  0.171213371
     0.964333968  0.943226433  0.347575083
     0.943667674  0.845878852  0.882265393
     0.556144561  0.434423301  0.670125957
     0.535724275  0.336952495  0.205104314
     0.035586077  0.836818846  0.206182175
     0.535610098  0.443320118  0.846484251
     0.556278774  0.345966494  0.381290296
     0.464201900  0.443205200  0.346471801
     0.056199590  0.845772496  0.382366104
     0.035660892  0.943193498  0.847598557
     0.464319636  0.336852688  0.705060303
     0.964260221  0.836859230  0.706172418
     0.056233941  0.934259865  0.671341690
     0.443735240  0.345856886  0.881181953
     0.443662236  0.434235174  0.170197653
     0.852169452  0.039801345  0.262807289
     0.851887407  0.740567712  0.790864879
     0.647859098  0.539775866  0.762013243
     0.648094811  0.240632046  0.290341841
     0.147780410  0.740287330  0.291030117
     0.351794439  0.539469394  0.261979407
     0.147879945  0.039688975  0.762870588
     0.352038822  0.240435890  0.790111713
     0.834046641  0.996660828  0.598109383
     0.867533730  0.083333920  0.926275514
     0.867267502  0.696985231  0.127351088
     0.632514679  0.583391531  0.425542811
     0.632648806  0.197112504  0.626826756
     0.165798060  0.783434306  0.955659310
     0.665897678  0.496639505  0.097432746
     0.666202724  0.283721260  0.954929550
     0.333780428  0.496263495  0.597330951
     0.132433838  0.696703383  0.627512717
     0.132516957  0.083132268  0.426255878
     0.367415335  0.197009996  0.126740471
     0.833845971  0.783717294  0.455446355
     0.165969572  0.996643947  0.098326639
     0.333841689  0.283585852  0.454834301
     0.367037473  0.583088112  0.925452868

  ion indices of the primitive-cell ions
   primitive index   ion index
                 1           1
                 2           2
                 3           3
                 4           4
                 5           5
                 6           6
                 7           7
                 8           8
                 9           9
                10          10
                11          11
                12          12
                13          13
                14          14
                15          15
                16          16
                17          17
                18          18
                19          19
                20          20
                21          21
                22          22
                23          23
                24          24
                25          25
                26          26
                27          27
                28          28
                29          29
                30          30
                31          31
                32          32
                33          33
                34          34
                35          35
                36          36
                37          37
                38          38
                39          39
                40          40
                41          41
                42          42
                43          43
                44          44
                45          45
                46          46
                47          47
                48          48
                49          49
                50          50
                51          51
                52          52
                53          53
                54          54
                55          55
                56          56
                57          57
                58          58
                59          59
                60          60
                61          61
                62          62
                63          63
                64          64
                65          65
                66          66
                67          67
                68          68
                69          69
                70          70
                71          71
                72          72
                73          73
                74          74
                75          75
                76          76
                77          77
                78          78
                79          79
                80          80
                81          81
                82          82
                83          83
                84          84
                85          85
                86          86
                87          87
                88          88
                89          89
                90          90
                91          91
                92          92
                93          93
                94          94
                95          95
                96          96
                97          97
                98          98
                99          99
               100         100
               101         101
               102         102
               103         103
               104         104
               105         105
               106         106
               107         107
               108         108
               109         109
               110         110
               111         111
               112         112
               113         113
               114         114
               115         115
               116         116
               117         117
               118         118
               119         119
               120         120
               121         121
               122         122
               123         123
               124         124
               125         125
               126         126
               127         127
               128         128
               129         129
               130         130
               131         131
               132         132
               133         133
               134         134
               135         135
               136         136
               137         137
               138         138
               139         139
               140         140
               141         141
               142         142
               143         143
               144         144
               145         145
               146         146
               147         147
               148         148
               149         149
               150         150
               151         151
               152         152
               153         153
               154         154
               155         155
               156         156

----------------------------------------------------------------------------------------

 
 

Automatic generation of k-mesh.
 generate k-points for:    1    1    4
Space group operators:
 irot       det(A)        alpha          n_x          n_y          n_z        tau_x        tau_y        tau_z
    1     1.000000     0.000001     1.000000     0.000000     0.000000     0.000000     0.000000     0.000000
 
 Subroutine IBZKPT returns following result:
 ===========================================
 
 Found      3 irreducible k-points:
 
 Following reciprocal coordinates:
            Coordinates               Weight
  0.000000  0.000000  0.000000      1.000000
 -0.000000  0.000000  0.250000      2.000000
 -0.000000  0.000000  0.500000      1.000000
 
 Following cartesian coordinates:
            Coordinates               Weight
  0.000000  0.000000  0.000000      1.000000
  0.000005 -0.006292  0.037392      2.000000
  0.000010 -0.012584  0.074784      1.000000
 


--------------------------------------------------------------------------------------------------------




 Dimension of arrays:
   k-points           NKPTS =      3   k-points in BZ     NKDIM =      3   number of bands    NBANDS=    384
   number of dos      NEDOS =    301   number of ions     NIONS =    156
   non local maximal  LDIM  =      6   non local SUM 2l+1 LMDIM =     18
   total plane-waves  NPLWV = 945000
   max r-space proj   IRMAX =   2241   max aug-charges    IRDMAX=   9447
   dimension x,y,z NGX =   150 NGY =  150 NGZ =   42
   dimension x,y,z NGXF=   300 NGYF=  300 NGZF=   84
   support grid    NGXF=   300 NGYF=  300 NGZF=   84
   ions per type =              80   4  32  24  16
   NGX,Y,Z   is equivalent  to a cutoff of  10.07, 10.10, 10.26 a.u.
   NGXF,Y,Z  is equivalent  to a cutoff of  20.14, 20.21, 20.51 a.u.

 SYSTEM =  flex_MOF                                
 POSCAR =  CoH_exp7	                               

 Startparameter for this run:
   NWRITE =      2    write-flag & timer
   PREC   = normal    normal or accurate (medium, high low for compatibility)
   ISTART =      0    job   : 0-new  1-cont  2-samecut
   ICHARG =      2    charge: 1-file 2-atom 10-const
   ISPIN  =      2    spin polarized calculation?
   LNONCOLLINEAR =      F non collinear calculations
   LSORBIT =      F    spin-orbit coupling
   INIWAV =      1    electr: 0-lowe 1-rand  2-diag
   LASPH  =      F    aspherical Exc in radial PAW
   METAGGA=      F    non-selfconsistent MetaGGA calc.

 Electronic Relaxation 1
   ENCUT  =  600.0 eV  44.10 Ry    6.64 a.u.  49.46 49.29 13.60*2*pi/ulx,y,z
   ENINI  =  600.0     initial cutoff
   ENAUG  =  644.9 eV  augmentation charge cutoff
   NELM   =     80;   NELMIN=  8; NELMDL= -5     # of ELM steps 
   EDIFF  = 0.1E-05   stopping-criterion for ELM
   LREAL  =      T    real-space projection
   NLSPLINE    = F    spline interpolate recip. space projectors
   LCOMPAT=      F    compatible to vasp.4.4
   GGA_COMPAT  = T    GGA compatible to vasp.4.4-vasp.4.6
   LMAXPAW     = -100 max onsite density
   LMAXMIX     =    2 max onsite mixed and CHGCAR
   VOSKOWN=      0    Vosko Wilk Nusair interpolation
   ROPT   =   -0.00050  -0.00050  -0.00050  -0.00050
   ROPT   =   -0.00050
 Ionic relaxation
   EDIFFG = -.1E-01   stopping-criterion for IOM
   NSW    =    500    number of steps for IOM
   NBLOCK =      1;   KBLOCK =    500    inner block; outer block 
   IBRION =      2    ionic relax: 0-MD 1-quasi-New 2-CG
   NFREE  =      1    steps in history (QN), initial steepest desc. (CG)
   ISIF   =      4    stress and relaxation
   IWAVPR =     11    prediction:  0-non 1-charg 2-wave 3-comb
   ISYM   =      0    0-nonsym 1-usesym 2-fastsym
   LCORR  =      T    Harris-Foulkes like correction to forces

   POTIM  = 0.5000    time-step for ionic-motion
   TEIN   =    0.0    initial temperature
   TEBEG  =    0.0;   TEEND  =   0.0 temperature during run
   SMASS  =  -3.00    Nose mass-parameter (am)
   estimated Nose-frequenzy (Omega)   =  0.10E-29 period in steps = 0.13E+47 mass=  -0.140E-25a.u.
   SCALEE = 1.0000    scale energy and forces
   NPACO  =    256;   APACO  = 16.0  distance and # of slots for P.C.
   PSTRESS=    0.0 pullay stress

  Mass of Ions in am
   POMASS =  12.01 58.93  1.00 14.00 16.00
  Ionic Valenz
   ZVAL   =   4.00  9.00  1.00  5.00  6.00
  Atomic Wigner-Seitz radii
   RWIGS  =  -1.00 -1.00 -1.00 -1.00 -1.00
  virtual crystal weights 
   VCA    =   1.00  1.00  1.00  1.00  1.00
   NELECT =     604.0000    total number of electrons
   NUPDOWN=      -1.0000    fix difference up-down

 DOS related values:
   EMIN   =  10.00;   EMAX   =-10.00  energy-range for DOS
   EFERMI =   0.00
   ISMEAR =     0;   SIGMA  =   0.05  broadening in eV -4-tet -1-fermi 0-gaus

 Electronic relaxation 2 (details)
   IALGO  =     38    algorithm
   LDIAG  =      T    sub-space diagonalisation (order eigenvalues)
   LSUBROT=      F    optimize rotation matrix (better conditioning)
   TURBO    =      0    0=normal 1=particle mesh
   IRESTART =      0    0=no restart 2=restart with 2 vectors
   NREBOOT  =      0    no. of reboots
   NMIN     =      0    reboot dimension
   EREF     =   0.00    reference energy to select bands
   IMIX   =      4    mixing-type and parameters
     AMIX     =   0.40;   BMIX     =  1.00
     AMIX_MAG =   1.60;   BMIX_MAG =  1.00
     AMIN     =   0.10
     WC   =   100.;   INIMIX=   1;  MIXPRE=   1;  MAXMIX= -45

 Intra band minimization:
   WEIMIN = 0.0010     energy-eigenvalue tresh-hold
   EBREAK =  0.65E-09  absolut break condition
   DEPER  =   0.30     relativ break condition  

   TIME   =   0.40     timestep for ELM

  volume/ion in A,a.u.               =      25.83       174.33
  Fermi-wavevector in a.u.,A,eV,Ry     =   0.869606  1.643317 10.288923  0.756215
  Thomas-Fermi vector in A             =   1.988452
 
 Write flags
   LWAVE        =      T    write WAVECAR
   LDOWNSAMPLE  =      F    k-point downsampling of WAVECAR
   LCHARG       =      T    write CHGCAR
   LVTOT        =      F    write LOCPOT, total local potential
   LVHAR        =      F    write LOCPOT, Hartree potential only
   LELF         =      F    write electronic localiz. function (ELF)
   LORBIT       =     11    0 simple, 1 ext, 2 COOP (PROOUT), +10 PAW based schemes


 Dipole corrections
   LMONO  =      F    monopole corrections only (constant potential shift)
   LDIPOL =      F    correct potential (dipole corrections)
   IDIPOL =      0    1-x, 2-y, 3-z, 4-all directions 
   EPSILON=  1.0000000 bulk dielectric constant

 Exchange correlation treatment:
   GGA     =    PE    GGA type
   LEXCH   =     8    internal setting for exchange type
   VOSKOWN=      0    Vosko Wilk Nusair interpolation
   LHFCALC =     F    Hartree Fock is set to
   LHFONE  =     F    Hartree Fock one center treatment
   AEXX    =    0.0000 exact exchange contribution

 Linear response parameters
   LEPSILON=     F    determine dielectric tensor
   LRPA    =     F    only Hartree local field effects (RPA)
   LNABLA  =     F    use nabla operator in PAW spheres
   LVEL    =     F    velocity operator in full k-point grid
   LINTERFAST=   F  fast interpolation
   KINTER  =     0    interpolate to denser k-point grid
   CSHIFT  =0.1000    complex shift for real part using Kramers Kronig
   OMEGAMAX=  -1.0    maximum frequency
   DEG_THRESHOLD= 0.2000000E-02 threshold for treating states as degnerate
   RTIME   =   -0.100 relaxation time in fs
  (WPLASMAI=    0.000 imaginary part of plasma frequency in eV, 0.658/RTIME)
   DFIELD  = 0.0000000 0.0000000 0.0000000 field for delta impulse in time
 
 Orbital magnetization related:
   ORBITALMAG=     F  switch on orbital magnetization
   LCHIMAG   =     F  perturbation theory with respect to B field
   DQ        =  0.001000  dq finite difference perturbation B field
   LLRAUG    =     F  two centre corrections for induced B field



--------------------------------------------------------------------------------------------------------


 conjugate gradient relaxation of ions
 charge density and potential will be updated during run
 spin polarized calculation
 Variant of blocked Davidson
 Davidson routine will perform the subspace rotation
 perform sub-space diagonalisation
    after iterative eigenvector-optimisation
 modified Broyden-mixing scheme, WC =      100.0
 initial mixing is a Kerker type mixing with AMIX =  0.4000 and BMIX =      1.0000
 Hartree-type preconditioning will be used
 using additional bands           82
 real space projection scheme for non local part
 use partial core corrections
 calculate Harris-corrections to forces 
   (improved forces if not selfconsistent)
 use gradient corrections 
 use of overlap-Matrix (Vanderbilt PP)
 Gauss-broadening in eV      SIGMA  =   0.05


--------------------------------------------------------------------------------------------------------


  energy-cutoff  :      600.00
  volume of cell :     4029.90
      direct lattice vectors                 reciprocal lattice vectors
    24.765974579  0.000219106 -0.003361525     0.040377979 -0.000001605  0.000002613
     0.000702139 24.337421087  4.095264985    -0.000000852  0.041687605 -0.003557472
    -0.000415943  0.578868529  6.783368730     0.000020524 -0.025167701  0.149567101

  length of vectors
    24.765974809 24.679571734  6.808023228     0.040377979  0.041839120  0.151669810


 
 k-points in units of 2pi/SCALE and weight: read from INCAR                         
   0.00000000  0.00000000  0.00000000       0.250
   0.00000513 -0.00629193  0.03739178       0.500
   0.00001026 -0.01258385  0.07478355       0.250
 
 k-points in reciprocal lattice and weights: read from INCAR                         
   0.00000000  0.00000000  0.00000000       0.250
  -0.00000000  0.00000000  0.25000000       0.500
  -0.00000000  0.00000000  0.50000000       0.250
 
 position of ions in fractional coordinates (direct lattice) 
   0.90094751  0.96848473  0.11432825
   0.93414391  0.98248666  0.40231976
   0.90076575  0.81187310  0.93911414
   0.59899411  0.46851032  0.61333353
   0.56599648  0.29770674  0.15060732
   0.06575456  0.79751976  0.15159945
   0.56585442  0.48253163  0.90132473
   0.59916774  0.31194951  0.43830949
   0.43390042  0.48238452  0.40124336
   0.09903067  0.81165698  0.43929014
   0.06588472  0.98243521  0.90233875
   0.43410305  0.29757238  0.65049756
   0.93400391  0.79761488  0.65158129
   0.09907680  0.96834970  0.61449958
   0.40087997  0.31179654  0.93811205
   0.40075228  0.46824510  0.11335632
   0.82359477  0.03446578  0.44784719
   0.84237665  0.08213244  0.08287173
   0.84208568  0.69822144  0.97073166
   0.65767267  0.58213580  0.58220439
   0.65786750  0.19831101  0.47035693
   0.17629581  0.74563358  0.10586864
   0.67639236  0.53443188  0.94719533
   0.67666551  0.24595553  0.10529925
   0.32325075  0.53406662  0.44715866
   0.15757286  0.69791209  0.47086294
   0.15767056  0.08198110  0.58285311
   0.34223117  0.19816449  0.97018837
   0.82336090  0.74592145  0.60567322
   0.17644159  0.03439763  0.94795550
   0.32341937  0.24578670  0.60511238
   0.34192440  0.58181459  0.08220658
   0.78081429  0.07648166  0.44890633
   0.80037975  0.12417991  0.09354019
   0.80007787  0.65620578  0.95984458
   0.69968016  0.62415761  0.59312131
   0.69988600  0.15628247  0.45972489
   0.21905280  0.70362613  0.10454733
   0.71918670  0.57641643  0.94851502
   0.71945373  0.20395778  0.10427561
   0.28042155  0.57602397  0.44852954
   0.19952953  0.65583580  0.45991553
   0.19966613  0.12403280  0.59348963
   0.30020591  0.15614370  0.95961067
   0.78058904  0.70392872  0.60434820
   0.21925138  0.07638036  0.94893955
   0.28063679  0.20378149  0.60409948
   0.29991897  0.62382851  0.09323272
   0.75067772  0.07305030  0.62386173
   0.78990694  0.16772356  0.92404385
   0.78960136  0.61261312  0.12917290
   0.71018281  0.66771625  0.42372903
   0.71035333  0.11271538  0.62915609
   0.24913293  0.70708058  0.92943099
   0.74928719  0.57295717  0.12363675
   0.74956451  0.20736405  0.92925669
   0.25032001  0.57255214  0.62361241
   0.21000303  0.61220964  0.62917582
   0.21014337  0.16755456  0.42393953
   0.28974169  0.11260760  0.12914333
   0.75052249  0.70735022  0.42916062
   0.24939960  0.07295805  0.12391564
   0.25051364  0.20717751  0.42908754
   0.28945780  0.66743847  0.92396691
   0.89321180  0.99969464  0.25848508
   0.89300217  0.78059389  0.79519992
   0.60679020  0.49969753  0.75754875
   0.60696945  0.28067347  0.29441388
   0.10672089  0.78037703  0.29535228
   0.39293210  0.49946373  0.25747035
   0.10682932  0.99958745  0.75858176
   0.39313289  0.28050298  0.79422963
   0.77056423  0.12007924  0.27391241
   0.77030083  0.66034016  0.77929480
   0.72946657  0.62002725  0.77361580
   0.72970947  0.16039280  0.27932506
   0.22931206  0.65999070  0.27940701
   0.27013355  0.61966460  0.27369448
   0.22950600  0.11993635  0.77385455
   0.27037737  0.16023404  0.77919806
   0.98704454  0.89004669  0.02684967
   0.01289029  0.88999444  0.52688753
   0.51282666  0.39009123  0.52573643
   0.48710073  0.39007031  0.02560278
   0.31334469  0.11029683  0.26607354
   0.74053107  0.53904838  0.25635078
   0.74076924  0.24123990  0.79645357
   0.75940284  0.03913100  0.75658938
   0.75932774  0.74123058  0.29639050
   0.68663173  0.67003991  0.28667304
   0.18643596  0.60982584  0.76621929
   0.18655164  0.16986899  0.28697089
   0.81317111  0.61025401  0.26622052
   0.25931147  0.24102909  0.29622236
   0.25906025  0.53861061  0.75627438
   0.24035431  0.74099562  0.79673793
   0.31305675  0.66978777  0.78703259
   0.68676994  0.11037805  0.76612649
   0.81350439  0.17003374  0.78713548
   0.24067427  0.03907277  0.25673854
   0.55738569  0.49531394  0.03949191
   0.44263615  0.28469382  0.51257739
   0.37906462  0.46938341  0.97374453
   0.12071977  0.81049617  0.57891391
   0.05738923  0.99525305  0.04041166
   0.37920766  0.31064815  0.07770547
   0.87924655  0.96968846  0.97471179
   0.94250316  0.78471834  0.51369032
   0.12076909  0.96952952  0.47490613
   0.62067195  0.46971679  0.47370235
   0.55749221  0.28481431  0.01268827
   0.94264254  0.99526037  0.54048070
   0.62081421  0.31083458  0.57798195
   0.44235837  0.49520483  0.53934759
   0.05720566  0.78465162  0.01367684
   0.87909310  0.81077728  0.07869419
   0.94376059  0.93435035  0.17121337
   0.96433397  0.94322643  0.34757508
   0.94366767  0.84587885  0.88226539
   0.55614456  0.43442330  0.67012596
   0.53572427  0.33695250  0.20510431
   0.03558608  0.83681885  0.20618218
   0.53561010  0.44332012  0.84648425
   0.55627877  0.34596649  0.38129030
   0.46420190  0.44320520  0.34647180
   0.05619959  0.84577250  0.38236610
   0.03566089  0.94319350  0.84759856
   0.46431964  0.33685269  0.70506030
   0.96426022  0.83685923  0.70617242
   0.05623394  0.93425986  0.67134169
   0.44373524  0.34585689  0.88118195
   0.44366224  0.43423517  0.17019765
   0.85216945  0.03980134  0.26280729
   0.85188741  0.74056771  0.79086488
   0.64785910  0.53977587  0.76201324
   0.64809481  0.24063205  0.29034184
   0.14778041  0.74028733  0.29103012
   0.35179444  0.53946939  0.26197941
   0.14787995  0.03968897  0.76287059
   0.35203882  0.24043589  0.79011171
   0.83404664  0.99666083  0.59810938
   0.86753373  0.08333392  0.92627551
   0.86726750  0.69698523  0.12735109
   0.63251468  0.58339153  0.42554281
   0.63264881  0.19711250  0.62682676
   0.16579806  0.78343431  0.95565931
   0.66589768  0.49663950  0.09743275
   0.66620272  0.28372126  0.95492955
   0.33378043  0.49626349  0.59733095
   0.13243384  0.69670338  0.62751272
   0.13251696  0.08313227  0.42625588
   0.36741533  0.19701000  0.12674047
   0.83384597  0.78371729  0.45544636
   0.16596957  0.99664395  0.09832664
   0.33384169  0.28358585  0.45483430
   0.36703747  0.58308811  0.92545287
 
 position of ions in cartesian coordinates  (Angst):
  22.31347565 23.63679902  4.73870369
  23.13550675 24.14428639  6.74948630
  22.30852110 20.30271859  9.69216505
  14.83474672 11.75750371  6.07712790
  14.01760075  7.33272026  2.23891041
   1.62897264 19.49734469  4.29418867
  14.01390009 12.26544799  8.08821072
  14.83900977  7.84590132  4.24871667
  10.74613857 11.97235737  4.69581553
   2.45297812 20.00795071  6.30348451
   1.63201387 24.43228931 10.14400752
  10.75092350  7.61879210  5.62974331
  23.13180602 19.78927369  7.68322077
   2.45415785 23.92287067  8.13369282
   9.92801177  8.13145496  7.63910181
   9.92530244 11.46158449  2.68517839
  20.39696515  1.09823338  3.17629062
  20.86230183  2.04704809  0.89567193
  20.85515893 17.55501972  9.44140193
  16.28807124 14.50484803  6.33109666
  16.29267341  5.09879759  4.00052918
   4.36661704 18.20812109  3.77112050
  16.75149729 13.55514353  8.61154165
  16.75840964  6.04702599  1.71926208
   8.00580881 13.25672111  5.21929977
   3.90273963 17.25798256  6.05164216
   3.90468013  2.33263853  4.28891191
   8.47542413  5.38449909  7.39153112
  20.39160686 18.50458989  7.16048300
   4.36937772  1.38592989  6.57060598
   8.00971686  6.33216573  5.11017490
   8.46846538 14.20752835  2.93917310
  19.33749394  2.12139514  3.35568509
  19.82223294  3.07654159  1.14037672
  19.81476973 16.52615553  9.19562678
  17.32845261 15.53387922  6.57709939
  17.33327733  4.06978593  3.75614892
   5.42550656 17.18501257  3.58998222
  17.81136979 14.57771246  8.79228758
  17.81807274  5.02432592  1.54018264
   6.94513086 14.27863891  5.40056942
   4.94181246 16.22762635  5.80492730
   4.94476647  3.36223461  4.53313498
   7.43460251  4.35568924  7.14783371
  19.33229127 17.48181898  6.97966739
   5.42963291  2.40826027  6.74906768
   6.95013533  5.30927165  4.93142538
   7.42818481 15.23641239  3.18616677
  18.59105716  2.13915429  4.52852109
  19.56254858  4.61703196  6.95234732
  19.55562359 14.98437059  3.38238623
  17.58866200 16.49593056  5.60639791
  17.59240998  3.10755597  4.72700923
   6.17012972 17.74659077  9.19951796
  18.55717828 14.01603346  3.18256634
  18.56345459  5.58478797  7.15018182
   6.19956173 14.29548695  6.57410419
   5.20109792 15.26385985  6.77438636
   5.20434660  4.32329711  3.56121203
   7.17576065  2.81539901  1.33621081
  18.58773895 17.46367207  5.80541843
   6.17662396  1.84739632  1.13850967
   6.20418153  5.29060642  3.75826372
   7.16878875 16.77864998  8.99997263
  22.12185521 24.47981406  5.84441154
  22.11628634 19.45815413  8.58787123
  15.02778635 12.60000340  7.18308656
  15.03226468  7.00142824  3.14450979
   2.64347187 19.16335790  5.19897539
   9.73158992 12.30478677  3.79063182
   2.64611843 24.76652320  9.23895615
   9.73618586  7.28655992  6.53496499
  19.08374459  3.08114717  2.34721495
  19.07739031 16.52225447  7.98792248
  18.06606401 15.53784605  7.78444502
  18.07196250  4.06539942  2.54916293
   5.67948373 16.22426164  4.59738675
   6.69044197 15.23953065  4.39335324
   5.68370212  3.36695167  5.73974040
   6.69594743  4.35079574  5.94087973
  24.44573379 21.67719974  3.82379030
   0.31964635 21.96517077  7.21879209
  12.70070730  9.79825926  5.16206715
  12.06378758  9.50823286  1.76947700
   7.76025343  2.83843065  2.25551639
  18.34024553 13.26760295  3.94397851
  18.34571025  6.33236121  6.38808946
  18.80706433  1.39047973  5.28992380
  18.80588862 18.21137816  5.04350915
  17.00545519 16.47314000  4.68629182
   4.61737775 15.28516924  7.69431964
   4.62013304  4.30033237  2.64166079
  20.13929274 15.00629365  4.30229031
   6.42214730  6.03755704  2.99559177
   6.41594325 13.54623343  7.33497033
   5.95279774 18.49518157  8.43833260
   7.75329848 16.75656400  8.08063831
  17.00828582  3.12995408  5.64663726
  20.14702099  4.59400903  6.03302883
   5.96045359  1.09960116  1.90075653
  13.80453121 12.07764664  2.29445636
  10.96230229  7.22552537  4.64141013
   9.38782938 11.98733475  8.52624342
   2.99007102 20.06052799  7.24577726
   1.42198231 24.24529822  4.34975926
   9.39163316  7.60543917  1.79801666
  21.77567326 24.16413896 10.58000508
  23.34234666 19.39558642  6.69501214
   2.99144733 23.87078278  7.19153768
  15.37167849 11.70604272  5.13482601
  13.80703251  6.93911268  1.25058527
  23.34593509 24.53514452  7.73896614
  15.37504689  7.89962357  5.19152773
  10.95555951 12.36431681  5.68510159
   1.41729927 19.10432649  3.30593905
  21.77213385 19.77797434  3.85120446
  23.37373564 22.83899467  4.98464322
  23.88318824 23.15711046  6.21725050
  23.37107659 21.09743225  9.44565736
  13.77348836 10.96077950  6.32292050
  13.26788505  8.31940057  2.76940709
   0.88182569 20.48537281  4.82548502
  13.26486527 11.27938883  7.55572769
  13.77687031  8.64077107  4.00138719
  11.49657953 10.98713490  4.16372829
   1.39227243 20.80527340  6.05720385
   0.88348644 23.44555328  9.61208098
  11.49927155  8.60636466  6.16062421
  23.88113799 20.77598773  8.21414681
   1.39306509 23.12610663  8.37981090
  10.98941198  8.92745038  7.39226607
  10.98796175 10.66678355  2.93133016
  21.10472562  1.12097967  1.94285121
  21.09801290 18.48150170  8.39468547
  16.04492398 13.57799997  7.37736421
  16.05074780  6.02457518  2.95276917
   3.66032461 18.18518503  5.00534061
   8.71280194 13.28102253  3.98519047
   3.66210152  1.40756147  5.33687226
   8.71842469  6.30903743  6.34308438
  20.65642892 24.60256371  8.13598301
  21.48499155  2.56451452  6.62162660
  21.47916131 17.03673261  3.71529326
  15.66507508 14.44471729  5.27363050
  15.66804193  5.16019892  5.05709829
   4.10630313 19.62000802  9.69040323
  16.49191315 12.14347140  2.69255419
  16.49896173  7.45796842  7.63731354
   8.26649758 12.42362287  6.08312459
   3.28008124 17.31923998  7.10938993
   3.28179266  2.27000017  3.23145400
   9.09948445  4.86816180  1.66530041
  20.65136897 19.33748406  6.29618756
   4.11105708 24.31269796  4.74794899
   8.26792472  7.16511071  4.24554577
   9.09006519 14.72665686  8.66435456
 


--------------------------------------------------------------------------------------------------------


 k-point  1 :   0.0000 0.0000 0.0000  plane waves:  134609
 k-point  2 :  -0.0000 0.0000 0.2500  plane waves:  134499
 k-point  3 :  -0.0000 0.0000 0.5000  plane waves:  134454

 maximum and minimum number of plane-waves per node :     33790    33553

 maximum number of plane-waves:    134609
 maximum index in each direction: 
   IXMAX=   49   IYMAX=   49   IZMAX=   13
   IXMIN=  -49   IYMIN=  -49   IZMIN=  -14


 real space projection operators:
  total allocation   :      11928.21 KBytes
  max/ min on nodes  :       3017.40       2945.80


 parallel 3D FFT for wavefunctions:
    minimum data exchange during FFTs selected (reduces bandwidth)
 parallel 3D FFT for charge:
    minimum data exchange during FFTs selected (reduces bandwidth)


 total amount of memory used by VASP MPI-rank0   113651. kBytes
=======================================================================

   base      :      30000. kBytes
   nonlr-proj:       6086. kBytes
   fftplans  :       9885. kBytes
   grid      :      27355. kBytes
   one-center:       1213. kBytes
   wavefun   :      39112. kBytes
 
     INWAV:  cpu time    0.0001: real time    0.0001
 Broyden mixing: mesh for mixing (old mesh)
   NGX = 99   NGY = 99   NGZ = 27
  (NGX  =300   NGY  =300   NGZ  = 84)
  gives a total of 264627 points

 initial charge density was supplied:
 charge density of overlapping atoms calculated
 number of electron     604.0000000 magnetization       0.0000000
 keeping initial charge density in first step


--------------------------------------------------------------------------------------------------------


 Maximum index for non-local projection operator          630
 Maximum index for augmentation-charges          483 (set IRDMAX)


--------------------------------------------------------------------------------------------------------


 First call to EWALD:  gamma=   0.111
 Maximum number of real-space cells 2x 2x 6
 Maximum number of reciprocal cells 4x 4x 1

    FEWALD:  cpu time    0.0149: real time    0.0151


--------------------------------------- Iteration      1(   1)  ---------------------------------------


    POTLOK:  cpu time    0.4094: real time    0.4659
    SETDIJ:  cpu time    0.0773: real time    0.0788
     EDDAV:  cpu time   18.5895: real time   18.7543
       DOS:  cpu time    0.0109: real time    0.0112
    --------------------------------------------
      LOOP:  cpu time   19.0874: real time   19.3103

 eigenvalue-minimisations  :  4608
 total energy-change (2. order) : 0.5618246E+04  (-0.2674175E+05)
 number of electron     604.0000000 magnetization       0.0000000
 augmentation part      604.0000000 magnetization       0.0000000

 Free energy of the ion-electron system (eV)
  ---------------------------------------------------
  alpha Z        PSCENC =       419.19485040
  Ewald energy   TEWEN  =     42379.57092805
  -Hartree energ DENC   =    -66113.88320508
  -exchange      EXHF   =         0.00000000
  -V(xc)+E(xc)   XCENC  =      2115.02741022
  PAW double counting   =     22087.95224925   -22402.63741193
  entropy T*S    EENTRO =        -0.04592887
  eigenvalues    EBANDS =     -1558.74341428
  atomic energy  EATOM  =     28691.81066055
  Solvation  Ediel_sol  =         0.00000000
  ---------------------------------------------------
  free energy    TOTEN  =      5618.24613829 eV

  energy without entropy =     5618.29206716  energy(sigma->0) =     5618.26910273


--------------------------------------------------------------------------------------------------------




--------------------------------------- Iteration      1(   2)  ---------------------------------------


     EDDAV:  cpu time   23.8562: real time   23.8940
       DOS:  cpu time    0.0020: real time    0.0020
    --------------------------------------------
      LOOP:  cpu time   23.8582: real time   23.8960

 eigenvalue-minimisations  :  6688
 total energy-change (2. order) :-0.5858243E+04  (-0.5632151E+04)
 number of electron     604.0000000 magnetization       0.0000000
 augmentation part      604.0000000 magnetization       0.0000000

 Free energy of the ion-electron system (eV)
  ---------------------------------------------------
  alpha Z        PSCENC =       419.19485040
  Ewald energy   TEWEN  =     42379.57092805
  -Hartree energ DENC   =    -66113.88320508
  -exchange      EXHF   =         0.00000000
  -V(xc)+E(xc)   XCENC  =      2115.02741022
  PAW double counting   =     22087.95224925   -22402.63741193
  entropy T*S    EENTRO =        -0.00000000
  eigenvalues    EBANDS =     -7417.03260865
  atomic energy  EATOM  =     28691.81066055
  Solvation  Ediel_sol  =         0.00000000
  ---------------------------------------------------
  free energy    TOTEN  =      -239.99712720 eV

  energy without entropy =     -239.99712720  energy(sigma->0) =     -239.99712720


--------------------------------------------------------------------------------------------------------




--------------------------------------- Iteration      1(   3)  ---------------------------------------


     EDDAV:  cpu time   18.9621: real time   18.9850
       DOS:  cpu time    0.0038: real time    0.0038
    --------------------------------------------
      LOOP:  cpu time   18.9659: real time   18.9888

 eigenvalue-minimisations  :  5408
 total energy-change (2. order) :-0.1018431E+04  (-0.1011284E+04)
 number of electron     604.0000000 magnetization       0.0000000
 augmentation part      604.0000000 magnetization       0.0000000

 Free energy of the ion-electron system (eV)
  ---------------------------------------------------
  alpha Z        PSCENC =       419.19485040
  Ewald energy   TEWEN  =     42379.57092805
  -Hartree energ DENC   =    -66113.88320508
  -exchange      EXHF   =         0.00000000
  -V(xc)+E(xc)   XCENC  =      2115.02741022
  PAW double counting   =     22087.95224925   -22402.63741193
  entropy T*S    EENTRO =        -0.07390404
  eigenvalues    EBANDS =     -8435.39015541
  atomic energy  EATOM  =     28691.81066055
  Solvation  Ediel_sol  =         0.00000000
  ---------------------------------------------------
  free energy    TOTEN  =     -1258.42857801 eV

  energy without entropy =    -1258.35467397  energy(sigma->0) =    -1258.39162599


--------------------------------------------------------------------------------------------------------




--------------------------------------- Iteration      1(   4)  ---------------------------------------


     EDDAV:  cpu time   21.3779: real time   21.4200
       DOS:  cpu time    0.0029: real time    0.0029
    --------------------------------------------
      LOOP:  cpu time   21.3809: real time   21.4229

 eigenvalue-minimisations  :  6208
 total energy-change (2. order) :-0.3766063E+02  (-0.3737879E+02)
 number of electron     604.0000000 magnetization       0.0000000
 augmentation part      604.0000000 magnetization       0.0000000

 Free energy of the ion-electron system (eV)
  ---------------------------------------------------
  alpha Z        PSCENC =       419.19485040
  Ewald energy   TEWEN  =     42379.57092805
  -Hartree energ DENC   =    -66113.88320508
  -exchange      EXHF   =         0.00000000
  -V(xc)+E(xc)   XCENC  =      2115.02741022
  PAW double counting   =     22087.95224925   -22402.63741193
  entropy T*S    EENTRO =        -0.05704086
  eigenvalues    EBANDS =     -8473.06764993
  atomic energy  EATOM  =     28691.81066055
  Solvation  Ediel_sol  =         0.00000000
  ---------------------------------------------------
  free energy    TOTEN  =     -1296.08920934 eV

  energy without entropy =    -1296.03216848  energy(sigma->0) =    -1296.06068891


--------------------------------------------------------------------------------------------------------




--------------------------------------- Iteration      1(   5)  ---------------------------------------


     EDDAV:  cpu time   23.0909: real time   23.1156
       DOS:  cpu time    0.0029: real time    0.0029
    CHARGE:  cpu time    0.9607: real time    0.9676
    MIXING:  cpu time    0.0348: real time    0.0385
    --------------------------------------------
      LOOP:  cpu time   24.0894: real time   24.1246

 eigenvalue-minimisations  :  6752
 total energy-change (2. order) :-0.1066599E+01  (-0.1063823E+01)
 number of electron     604.0000001 magnetization       0.0006067
 augmentation part       36.6098124 magnetization      -0.0017189

 Broyden mixing:
  rms(total) = 0.87872E+01    rms(broyden)= 0.87867E+01
  rms(prec ) = 0.96624E+01
  weight for this iteration     100.00

 Free energy of the ion-electron system (eV)
  ---------------------------------------------------
  alpha Z        PSCENC =       419.19485040
  Ewald energy   TEWEN  =     42379.57092805
  -Hartree energ DENC   =    -66113.88320508
  -exchange      EXHF   =         0.00000000
  -V(xc)+E(xc)   XCENC  =      2115.02741022
  PAW double counting   =     22087.95224925   -22402.63741193
  entropy T*S    EENTRO =        -0.05557779
  eigenvalues    EBANDS =     -8474.13571220
  atomic energy  EATOM  =     28691.81066055
  Solvation  Ediel_sol  =         0.00000000
  ---------------------------------------------------
  free energy    TOTEN  =     -1297.15580854 eV

  energy without entropy =    -1297.10023075  energy(sigma->0) =    -1297.12801965


--------------------------------------------------------------------------------------------------------




--------------------------------------- Iteration      1(   6)  ---------------------------------------


    POTLOK:  cpu time    0.3564: real time    0.3568
    SETDIJ:  cpu time    0.0623: real time    0.0623
     EDDAV:  cpu time   23.1221: real time   23.1721
       DOS:  cpu time    0.0047: real time    0.0047
    CHARGE:  cpu time    0.9096: real time    0.9108
    MIXING:  cpu time    0.0172: real time    0.0278
    --------------------------------------------
      LOOP:  cpu time   24.4722: real time   24.5345

 eigenvalue-minimisations  :  6752
 total energy-change (2. order) :-0.2230905E+03  (-0.2802794E+03)
 number of electron     604.0000034 magnetization       0.0013595
 augmentation part       56.6942567 magnetization      -0.0090938

 Broyden mixing:
  rms(total) = 0.22491E+02    rms(broyden)= 0.22491E+02
  rms(prec ) = 0.22854E+02
  weight for this iteration     100.00

 eigenvalues of (default mixing * dielectric matrix)
  average eigenvalue GAMMA=   0.1051
  0.1051

 Free energy of the ion-electron system (eV)
  ---------------------------------------------------
  alpha Z        PSCENC =       419.19485040
  Ewald energy   TEWEN  =     42379.57092805
  -Hartree energ DENC   =    -66404.64615942
  -exchange      EXHF   =         0.00000000
  -V(xc)+E(xc)   XCENC  =      2150.77979913
  PAW double counting   =     32794.62708126   -33016.89436876
  entropy T*S    EENTRO =        -0.12383287
  eigenvalues    EBANDS =     -8534.56523791
  atomic energy  EATOM  =     28691.81066055
  Solvation  Ediel_sol  =         0.00000000
  ---------------------------------------------------
  free energy    TOTEN  =     -1520.24627957 eV

  energy without entropy =    -1520.12244670  energy(sigma->0) =    -1520.18436314


--------------------------------------------------------------------------------------------------------




--------------------------------------- Iteration      1(   7)  ---------------------------------------


    POTLOK:  cpu time    0.3533: real time    0.3537
    SETDIJ:  cpu time    0.0618: real time    0.0618
     EDDAV:  cpu time   19.5198: real time   19.5403
       DOS:  cpu time    0.0030: real time    0.0030
    CHARGE:  cpu time    0.9058: real time    0.9101
    MIXING:  cpu time    0.0087: real time    0.0145
    --------------------------------------------
      LOOP:  cpu time   20.8523: real time   20.8834

 eigenvalue-minimisations  :  5440
 total energy-change (2. order) : 0.9912448E+02  (-0.2311600E+02)
 number of electron     604.0000038 magnetization       0.0105015
 augmentation part       55.1270737 magnetization      -0.0589198

 Broyden mixing:
  rms(total) = 0.14329E+02    rms(broyden)= 0.14329E+02
  rms(prec ) = 0.14827E+02
  weight for this iteration     100.00

 eigenvalues of (default mixing * dielectric matrix)
  average eigenvalue GAMMA=   0.4975
  0.4975  0.4975

 Free energy of the ion-electron system (eV)
  ---------------------------------------------------
  alpha Z        PSCENC =       419.19485040
  Ewald energy   TEWEN  =     42379.57092805
  -Hartree energ DENC   =    -66564.94917763
  -exchange      EXHF   =         0.00000000
  -V(xc)+E(xc)   XCENC  =      2153.44147402
  PAW double counting   =     34364.40936183   -34617.51983692
  entropy T*S    EENTRO =        -0.12572976
  eigenvalues    EBANDS =     -8246.95432522
  atomic energy  EATOM  =     28691.81066055
  Solvation  Ediel_sol  =         0.00000000
  ---------------------------------------------------
  free energy    TOTEN  =     -1421.12179468 eV

  energy without entropy =    -1420.99606492  energy(sigma->0) =    -1421.05892980


--------------------------------------------------------------------------------------------------------




--------------------------------------- Iteration      1(   8)  ---------------------------------------


    POTLOK:  cpu time    0.3315: real time    0.3319
    SETDIJ:  cpu time    0.0616: real time    0.0616
     EDDAV:  cpu time   21.7556: real time   21.7815
       DOS:  cpu time    0.0026: real time    0.0026
    CHARGE:  cpu time    0.9107: real time    0.9164
    MIXING:  cpu time    0.0087: real time    0.0114
    --------------------------------------------
      LOOP:  cpu time   23.0707: real time   23.1055

 eigenvalue-minimisations  :  6336
 total energy-change (2. order) : 0.2635864E+03  (-0.2694456E+02)
 number of electron     604.0000029 magnetization       0.0096756
 augmentation part       45.6155668 magnetization       0.0070459

 Broyden mixing:
  rms(total) = 0.31669E+01    rms(broyden)= 0.31666E+01
  rms(prec ) = 0.32300E+01
  weight for this iteration     100.00

 eigenvalues of (default mixing * dielectric matrix)
  average eigenvalue GAMMA=   0.4873
  0.4784  0.4918  0.4918

 Free energy of the ion-electron system (eV)
  ---------------------------------------------------
  alpha Z        PSCENC =       419.19485040
  Ewald energy   TEWEN  =     42379.57092805
  -Hartree energ DENC   =    -67057.22178751
  -exchange      EXHF   =         0.00000000
  -V(xc)+E(xc)   XCENC  =      2164.89588157
  PAW double counting   =     39827.92896654   -40166.29750868
  entropy T*S    EENTRO =        -0.00008800
  eigenvalues    EBANDS =     -7417.41727137
  atomic energy  EATOM  =     28691.81066055
  Solvation  Ediel_sol  =         0.00000000
  ---------------------------------------------------
[...]
     15.37168     11.70604      5.13483         0.005153      0.002402     -0.000942
     13.80703      6.93911      1.25059         0.006782      0.000655     -0.000138
     23.34594     24.53514      7.73897        -0.004061     -0.000270     -0.000402
     15.37505      7.89962      5.19153         0.007133     -0.002368     -0.004603
     10.95556     12.36432      5.68510        -0.003698     -0.001137     -0.001445
      1.41730     19.10433      3.30594         0.004503      0.000873     -0.002415
     21.77213     19.77797      3.85120        -0.006366     -0.002974     -0.006257
     23.37374     22.83899      4.98464         0.003258      0.000347      0.004922
     23.88319     23.15711      6.21725         0.003676      0.002476      0.006991
     23.37108     21.09743      9.44566         0.002701      0.000011     -0.001108
     13.77349     10.96078      6.32292         0.001290      0.005751      0.004285
     13.26789      8.31940      2.76941        -0.003843     -0.003186     -0.006541
      0.88183     20.48537      4.82549        -0.004674     -0.001918     -0.003023
     13.26487     11.27939      7.55573        -0.004021      0.001238      0.006206
     13.77687      8.64077      4.00139        -0.005249     -0.000185     -0.003800
     11.49658     10.98713      4.16373         0.003436      0.000910      0.006177
      1.39227     20.80527      6.05720        -0.000061     -0.003111     -0.001091
      0.88349     23.44555      9.61208        -0.001656      0.001418      0.007058
     11.49927      8.60636      6.16062         0.004049     -0.003418     -0.006489
     23.88114     20.77599      8.21415         0.002415     -0.003729     -0.003210
      1.39307     23.12611      8.37981        -0.002616      0.001838      0.004757
     10.98941      8.92745      7.39227         0.003108     -0.003099     -0.003022
     10.98796     10.66678      2.93133        -0.001049      0.006597      0.003485
     21.10473      1.12098      1.94285         0.001099     -0.002836     -0.001157
     21.09801     18.48150      8.39469         0.002835      0.002608     -0.004459
     16.04492     13.57800      7.37736        -0.000749     -0.004844      0.001250
     16.05075      6.02458      2.95277        -0.004910      0.004632     -0.003114
      3.66032     18.18519      5.00534        -0.001738     -0.000170     -0.002649
      8.71280     13.28102      3.98519         0.001778     -0.005893      0.001727
      3.66210      1.40756      5.33687        -0.003281     -0.005842     -0.000159
      8.71842      6.30904      6.34308         0.002082      0.005454     -0.002148
     20.65643     24.60256      8.13598        -0.002418      0.006829      0.003655
     21.48499      2.56451      6.62163         0.005460      0.000402     -0.002872
     21.47916     17.03673      3.71529         0.003733     -0.000451      0.002824
     15.66508     14.44472      5.27363        -0.006659      0.000311     -0.007159
     15.66804      5.16020      5.05710        -0.002462     -0.000193      0.001080
      4.10630     19.62001      9.69040         0.001465     -0.003959     -0.002349
     16.49191     12.14347      2.69255         0.001954      0.006283      0.002246
     16.49896      7.45797      7.63731        -0.003388     -0.004037      0.003755
      8.26650     12.42362      6.08312        -0.002413      0.007036      0.003903
      3.28008     17.31924      7.10939        -0.003530     -0.000578      0.002136
      3.28179      2.27000      3.23145        -0.005369      0.001274     -0.001914
      9.09948      4.86816      1.66530         0.004283     -0.003212      0.002191
     20.65137     19.33748      6.29619         0.001511     -0.005654     -0.000813
      4.11106     24.31270      4.74795        -0.000421      0.004010      0.002290
      8.26792      7.16511      4.24555         0.001715     -0.003249      0.000920
      9.09007     14.72666      8.66435         0.005575     -0.001452      0.000281
 -----------------------------------------------------------------------------------
    total drift:                               -0.003360     -0.047372     -0.085470


--------------------------------------------------------------------------------------------------------



  FREE ENERGIE OF THE ION-ELECTRON SYSTEM (eV)
  ---------------------------------------------------
  free  energy   TOTEN  =     -1179.03800082 eV

  energy  without entropy=    -1179.03207095  energy(sigma->0) =    -1179.03503589
 


--------------------------------------------------------------------------------------------------------


    POTLOK:  cpu time    1.7298: real time    1.7315


--------------------------------------------------------------------------------------------------------




--------------------------------------------------------------------------------------------------------


  
 reached required accuracy - stopping structural energy minimisation
 writing wavefunctions
     LOOP+:  cpu time 1093.4430: real time 1104.7103
    4ORBIT:  cpu time    0.0000: real time    0.0000
 


 total charge     
 
# of ion       s       p       d       tot
------------------------------------------
    1        0.866   1.767   0.000   2.633
    2        0.867   1.773   0.000   2.640
    3        0.866   1.767   0.000   2.633
    4        0.866   1.767   0.000   2.633
    5        0.867   1.773   0.000   2.640
    6        0.867   1.773   0.000   2.640
    7        0.867   1.773   0.000   2.640
    8        0.866   1.767   0.000   2.633
    9        0.867   1.773   0.000   2.640
   10        0.866   1.767   0.000   2.633
   11        0.867   1.773   0.000   2.640
   12        0.867   1.773   0.000   2.640
   13        0.867   1.773   0.000   2.640
   14        0.866   1.767   0.000   2.633
   15        0.866   1.767   0.000   2.633
   16        0.866   1.767   0.000   2.633
   17        0.863   1.715   0.000   2.578
   18        0.863   1.718   0.000   2.580
   19        0.863   1.717   0.000   2.580
   20        0.863   1.718   0.000   2.580
   21        0.863   1.717   0.000   2.580
   22        0.863   1.715   0.000   2.578
   23        0.863   1.715   0.000   2.578
   24        0.863   1.715   0.000   2.578
   25        0.863   1.715   0.000   2.577
   26        0.863   1.717   0.000   2.580
   27        0.863   1.718   0.000   2.580
   28        0.863   1.717   0.000   2.580
   29        0.863   1.715   0.000   2.578
   30        0.863   1.715   0.000   2.578
   31        0.863   1.715   0.000   2.578
   32        0.863   1.718   0.000   2.580
   33        0.866   1.783   0.000   2.649
   34        0.866   1.784   0.000   2.650
   35        0.866   1.783   0.000   2.649
   36        0.866   1.784   0.000   2.650
   37        0.866   1.783   0.000   2.649
   38        0.866   1.783   0.000   2.649
   39        0.866   1.783   0.000   2.649
   40        0.866   1.783   0.000   2.649
   41        0.866   1.783   0.000   2.649
   42        0.866   1.783   0.000   2.649
   43        0.866   1.784   0.000   2.650
   44        0.866   1.783   0.000   2.649
   45        0.866   1.783   0.000   2.649
   46        0.866   1.783   0.000   2.649
   47        0.866   1.783   0.000   2.649
   48        0.866   1.784   0.000   2.650
   49        0.870   1.765   0.000   2.636
   50        0.870   1.765   0.000   2.636
   51        0.870   1.765   0.000   2.635
   52        0.870   1.765   0.000   2.636
   53        0.870   1.765   0.000   2.635
   54        0.870   1.765   0.000   2.636
   55        0.870   1.765   0.000   2.635
   56        0.870   1.765   0.000   2.636
   57        0.870   1.765   0.000   2.635
   58        0.870   1.765   0.000   2.635
   59        0.870   1.765   0.000   2.636
   60        0.870   1.765   0.000   2.635
   61        0.870   1.765   0.000   2.635
   62        0.870   1.765   0.000   2.636
   63        0.870   1.765   0.000   2.636
   64        0.870   1.765   0.000   2.636
   65        0.845   1.789   0.000   2.634
   66        0.845   1.789   0.000   2.634
   67        0.845   1.789   0.000   2.634
   68        0.845   1.789   0.000   2.634
   69        0.845   1.789   0.000   2.634
   70        0.845   1.789   0.000   2.634
   71        0.845   1.789   0.000   2.634
   72        0.845   1.789   0.000   2.634
   73        0.866   1.794   0.000   2.660
   74        0.866   1.794   0.000   2.660
   75        0.866   1.794   0.000   2.660
   76        0.866   1.794   0.000   2.660
   77        0.866   1.794   0.000   2.660
   78        0.866   1.794   0.000   2.660
   79        0.866   1.794   0.000   2.660
   80        0.866   1.794   0.000   2.660
   81        0.405   0.517   7.153   8.075
   82        0.405   0.517   7.153   8.074
   83        0.405   0.517   7.153   8.075
   84        0.405   0.517   7.153   8.075
   85        0.638   0.048   0.000   0.686
   86        0.638   0.048   0.000   0.686
   87        0.638   0.048   0.000   0.686
   88        0.638   0.048   0.000   0.686
   89        0.638   0.048   0.000   0.686
   90        0.638   0.048   0.000   0.686
   91        0.638   0.048   0.000   0.686
   92        0.638   0.048   0.000   0.686
   93        0.638   0.048   0.000   0.686
   94        0.638   0.048   0.000   0.686
   95        0.638   0.048   0.000   0.686
   96        0.638   0.048   0.000   0.686
   97        0.638   0.048   0.000   0.686
   98        0.638   0.048   0.000   0.686
   99        0.638   0.048   0.000   0.686
  100        0.638   0.048   0.000   0.686
  101        0.637   0.049   0.000   0.686
  102        0.637   0.049   0.000   0.686
  103        0.633   0.049   0.000   0.682
  104        0.633   0.049   0.000   0.682
  105        0.637   0.049   0.000   0.686
  106        0.633   0.049   0.000   0.682
  107        0.633   0.049   0.000   0.682
  108        0.637   0.049   0.000   0.686
  109        0.633   0.049   0.000   0.682
  110        0.633   0.049   0.000   0.682
  111        0.637   0.049   0.000   0.686
  112        0.637   0.049   0.000   0.686
  113        0.633   0.049   0.000   0.682
  114        0.637   0.049   0.000   0.686
  115        0.637   0.049   0.000   0.686
  116        0.633   0.049   0.000   0.682
  117        1.235   2.607   0.000   3.842
  118        1.236   2.610   0.000   3.846
  119        1.235   2.607   0.000   3.842
  120        1.235   2.607   0.000   3.842
  121        1.236   2.610   0.000   3.846
  122        1.236   2.610   0.000   3.846
  123        1.236   2.610   0.000   3.846
  124        1.235   2.607   0.000   3.842
  125        1.236   2.610   0.000   3.846
  126        1.235   2.607   0.000   3.842
  127        1.236   2.610   0.000   3.846
  128        1.236   2.610   0.000   3.846
  129        1.236   2.610   0.000   3.846
  130        1.235   2.607   0.000   3.842
  131        1.235   2.607   0.000   3.842
  132        1.235   2.607   0.000   3.842
  133        1.210   2.719   0.000   3.929
  134        1.210   2.719   0.000   3.930
  135        1.210   2.719   0.000   3.929
  136        1.210   2.719   0.000   3.929
  137        1.210   2.719   0.000   3.929
  138        1.210   2.719   0.000   3.929
  139        1.210   2.719   0.000   3.929
  140        1.210   2.719   0.000   3.929
  141        1.585   3.538   0.000   5.123
  142        1.586   3.535   0.000   5.121
  143        1.586   3.535   0.000   5.121
  144        1.586   3.535   0.000   5.121
  145        1.586   3.535   0.000   5.121
  146        1.585   3.538   0.000   5.123
  147        1.585   3.538   0.000   5.123
  148        1.585   3.538   0.000   5.123
  149        1.585   3.538   0.000   5.123
  150        1.586   3.535   0.000   5.121
  151        1.586   3.535   0.000   5.121
  152        1.586   3.535   0.000   5.121
  153        1.585   3.538   0.000   5.123
  154        1.585   3.538   0.000   5.123
  155        1.585   3.538   0.000   5.123
  156        1.586   3.535   0.000   5.121
--------------------------------------------------
tot        145.949 264.918  28.611 439.478
 


 magnetization (x)
 
# of ion       s       p       d       tot
------------------------------------------
    1        0.003   0.012   0.000   0.015
    2        0.003   0.013   0.000   0.016
    3        0.003   0.012   0.000   0.015
    4       -0.003  -0.012   0.000  -0.015
    5       -0.003  -0.013   0.000  -0.016
    6        0.003   0.013   0.000   0.016
    7       -0.003  -0.013   0.000  -0.016
    8       -0.003  -0.012   0.000  -0.015
    9       -0.003  -0.013   0.000  -0.016
   10        0.003   0.012   0.000   0.015
   11        0.003   0.013   0.000   0.016
   12       -0.003  -0.013   0.000  -0.016
   13        0.003   0.013   0.000   0.016
   14        0.003   0.012   0.000   0.015
   15       -0.003  -0.012   0.000  -0.015
   16       -0.003  -0.012   0.000  -0.015
   17        0.000   0.001   0.000   0.001
   18        0.000   0.001   0.000   0.001
   19        0.000   0.001   0.000   0.001
   20       -0.000  -0.001   0.000  -0.001
   21       -0.000  -0.001   0.000  -0.001
   22        0.000   0.001   0.000   0.001
   23       -0.000  -0.001   0.000  -0.001
   24       -0.000  -0.001   0.000  -0.001
   25       -0.000  -0.001   0.000  -0.001
   26        0.000   0.001   0.000   0.001
   27        0.000   0.001   0.000   0.001
   28       -0.000  -0.001   0.000  -0.001
   29        0.000   0.001   0.000   0.001
   30        0.000   0.001   0.000   0.001
   31       -0.000  -0.001   0.000  -0.001
   32       -0.000  -0.001   0.000  -0.001
   33        0.000  -0.000   0.000  -0.000
   34       -0.000  -0.000   0.000  -0.000
   35       -0.000  -0.000   0.000  -0.000
   36        0.000   0.000   0.000   0.000
   37        0.000   0.000   0.000   0.000
   38        0.000  -0.000   0.000  -0.000
   39       -0.000   0.000   0.000   0.000
   40       -0.000   0.000   0.000   0.000
   41       -0.000   0.000   0.000   0.000
   42       -0.000  -0.000   0.000  -0.000
   43       -0.000  -0.000   0.000  -0.000
   44        0.000   0.000   0.000   0.000
   45        0.000  -0.000   0.000  -0.000
   46        0.000  -0.000   0.000  -0.000
   47       -0.000   0.000   0.000   0.000
   48        0.000   0.000   0.000   0.000
   49        0.000   0.000   0.000   0.000
   50        0.000   0.000   0.000   0.000
   51        0.000   0.000   0.000   0.000
   52       -0.000  -0.000   0.000  -0.000
   53       -0.000  -0.000   0.000  -0.000
   54        0.000   0.000   0.000   0.000
   55       -0.000  -0.000   0.000  -0.000
   56       -0.000  -0.000   0.000  -0.000
   57       -0.000  -0.000   0.000  -0.000
   58        0.000   0.000   0.000   0.000
   59        0.000   0.000   0.000   0.000
   60       -0.000  -0.000   0.000  -0.000
   61        0.000   0.000   0.000   0.000
   62        0.000   0.000   0.000   0.000
   63       -0.000  -0.000   0.000  -0.000
   64       -0.000  -0.000   0.000  -0.000
   65        0.002   0.009   0.000   0.010
   66        0.002   0.009   0.000   0.010
   67       -0.002  -0.009   0.000  -0.010
   68       -0.002  -0.009   0.000  -0.010
   69        0.002   0.009   0.000   0.010
   70       -0.002  -0.009   0.000  -0.010
   71        0.002   0.009   0.000   0.010
   72       -0.002  -0.009   0.000  -0.010
   73        0.000   0.000   0.000   0.000
   74        0.000   0.000   0.000   0.000
   75       -0.000  -0.000   0.000  -0.000
   76       -0.000  -0.000   0.000  -0.000
   77        0.000   0.000   0.000   0.000
   78       -0.000  -0.000   0.000  -0.000
   79        0.000   0.000   0.000   0.000
   80       -0.000  -0.000   0.000  -0.000
   81        0.011   0.087   2.344   2.442
   82        0.011   0.087   2.344   2.442
   83       -0.011  -0.087  -2.344  -2.442
   84       -0.011  -0.087  -2.344  -2.442
   85        0.000  -0.000   0.000   0.000
   86        0.000  -0.000   0.000   0.000
   87        0.000  -0.000   0.000   0.000
   88       -0.000   0.000   0.000  -0.000
   89       -0.000   0.000   0.000  -0.000
   90        0.000  -0.000   0.000   0.000
   91       -0.000   0.000   0.000  -0.000
   92       -0.000   0.000   0.000  -0.000
   93       -0.000   0.000   0.000  -0.000
   94        0.000  -0.000   0.000   0.000
   95        0.000  -0.000   0.000   0.000
   96       -0.000   0.000   0.000  -0.000
   97        0.000  -0.000   0.000   0.000
   98        0.000  -0.000   0.000   0.000
   99       -0.000   0.000   0.000  -0.000
  100       -0.000   0.000   0.000  -0.000
  101       -0.001  -0.000   0.000  -0.001
  102       -0.001  -0.000   0.000  -0.001
  103       -0.001  -0.000   0.000  -0.001
  104        0.001   0.000   0.000   0.001
  105        0.001   0.000   0.000   0.001
  106       -0.001  -0.000   0.000  -0.001
  107        0.001   0.000   0.000   0.001
  108        0.001   0.000   0.000   0.001
  109        0.001   0.000   0.000   0.001
  110       -0.001  -0.000   0.000  -0.001
  111       -0.001  -0.000   0.000  -0.001
  112        0.001   0.000   0.000   0.001
  113       -0.001  -0.000   0.000  -0.001
  114       -0.001  -0.000   0.000  -0.001
  115        0.001   0.000   0.000   0.001
  116        0.001   0.000   0.000   0.001
  117        0.013   0.045   0.000   0.058
  118        0.014   0.047   0.000   0.061
  119        0.013   0.045   0.000   0.058
  120       -0.013  -0.045   0.000  -0.058
  121       -0.014  -0.047   0.000  -0.061
  122        0.014   0.047   0.000   0.061
  123       -0.014  -0.047   0.000  -0.061
  124       -0.013  -0.045   0.000  -0.058
  125       -0.014  -0.047   0.000  -0.061
  126        0.013   0.045   0.000   0.058
  127        0.014   0.047   0.000   0.061
  128       -0.014  -0.047   0.000  -0.061
  129        0.014   0.047   0.000   0.061
  130        0.013   0.045   0.000   0.058
  131       -0.013  -0.045   0.000  -0.058
  132       -0.013  -0.045   0.000  -0.058
  133        0.000   0.001   0.000   0.001
  134        0.000   0.001   0.000   0.001
  135       -0.000  -0.001   0.000  -0.001
  136       -0.000  -0.001   0.000  -0.001
  137        0.000   0.001   0.000   0.001
  138       -0.000  -0.001   0.000  -0.001
  139        0.000   0.001   0.000   0.001
  140       -0.000  -0.001   0.000  -0.001
  141        0.000   0.001   0.000   0.001
  142        0.000   0.001   0.000   0.001
  143        0.000   0.001   0.000   0.001
  144       -0.000  -0.001   0.000  -0.001
  145       -0.000  -0.001   0.000  -0.001
  146        0.000   0.001   0.000   0.001
  147       -0.000  -0.001   0.000  -0.001
  148       -0.000  -0.001   0.000  -0.001
  149       -0.000  -0.001   0.000  -0.001
  150        0.000   0.001   0.000   0.001
  151        0.000   0.001   0.000   0.001
  152       -0.000  -0.001   0.000  -0.001
  153        0.000   0.001   0.000   0.001
  154        0.000   0.001   0.000   0.001
  155       -0.000  -0.001   0.000  -0.001
  156       -0.000  -0.001   0.000  -0.001
--------------------------------------------------
tot          0.000  -0.000   0.000   0.000
 

 total amount of memory used by VASP MPI-rank0   113651. kBytes
=======================================================================

   base      :      30000. kBytes
   nonlr-proj:       6086. kBytes
   fftplans  :       9885. kBytes
   grid      :      27355. kBytes
   one-center:       1213. kBytes
   wavefun   :      39112. kBytes
 
  
  
 General timing and accounting informations for this job:
 ========================================================
  
                  Total CPU time used (sec):     1311.706
                            User time (sec):     1198.659
                          System time (sec):      113.047
                         Elapsed time (sec):     1331.808
  
                   Maximum memory used (kb):      977516.
                   Average memory used (kb):           0.
  
                          Minor page faults:       102276
                          Major page faults:            7
                 Voluntary context switches:        39984
