       N       E                     dE             d eps       ncg     rms          rms(c)
RMM:   1     0.732243897708E+04    0.73224E+04   -0.24304E+05  2400   0.131E+03
RMM:   2     0.267148234866E+04   -0.46510E+04   -0.67442E+04  2400   0.293E+02
RMM:   3     0.543718271673E+03   -0.21278E+04   -0.27134E+04  2400   0.181E+02
RMM:   4    -0.603950894298E+03   -0.11477E+04   -0.11238E+04  2400   0.144E+02
RMM:   5    -0.102522922730E+04   -0.42128E+03   -0.37591E+03  2400   0.868E+01
RMM:   6    -0.116500872456E+04   -0.13978E+03   -0.12256E+03  2400   0.526E+01
RMM:   7    -0.121123392284E+04   -0.46225E+02   -0.42482E+02  2400   0.304E+01
RMM:   8    -0.122824252899E+04   -0.17009E+02   -0.15195E+02  2400   0.191E+01
RMM:   9    -0.123873372785E+04   -0.10491E+02   -0.10004E+02  6062   0.114E+01
RMM:  10    -0.123920395752E+04   -0.47023E+00   -0.48405E+00  6260   0.298E+00
RMM:  11    -0.123924512317E+04   -0.41166E-01   -0.35857E-01  6122   0.648E-01
RMM:  12    -0.123924617017E+04   -0.10470E-02   -0.12198E-02  6153   0.149E-01    0.577E+01
RMM:  13    -0.116762259264E+04    0.71624E+02   -0.15831E+02  4800   0.163E+01    0.321E+01
RMM:  14    -0.115272672045E+04    0.14896E+02   -0.43313E+01  4800   0.847E+00    0.149E+01
RMM:  15    -0.115118291831E+04    0.15438E+01   -0.10579E+01  4800   0.448E+00    0.502E+00
RMM:  16    -0.115098997815E+04    0.19294E+00   -0.80311E-01  4913   0.142E+00    0.143E+00
RMM:  17    -0.115097977818E+04    0.10200E-01   -0.17405E-01  4835   0.680E-01    0.497E-01
RMM:  18    -0.115097743212E+04    0.23461E-02   -0.54247E-02  4815   0.301E-01    0.282E-01
RMM:  19    -0.115097850719E+04   -0.10751E-02   -0.14061E-02  4847   0.162E-01    0.146E-01
RMM:  20    -0.115098309210E+04   -0.45849E-02   -0.10324E-02  4817   0.128E-01    0.919E-02
RMM:  21    -0.115098591367E+04   -0.28216E-02   -0.47268E-03  4822   0.790E-02    0.626E-02
RMM:  22    -0.115098896051E+04   -0.30468E-02   -0.14318E-03  4802   0.515E-02    0.289E-02
RMM:  23    -0.115098969745E+04   -0.73694E-03   -0.25999E-04  5004   0.210E-02    0.166E-02
RMM:  24    -0.115099046479E+04   -0.76734E-03   -0.77130E-05  4804   0.123E-02    0.107E-02
RMM:  25    -0.115099100368E+04   -0.53889E-03   -0.53711E-05  4756   0.840E-03    0.585E-03
RMM:  26    -0.115099121331E+04   -0.20963E-03   -0.23162E-05  4327   0.482E-03    0.319E-03
RMM:  27    -0.115099127721E+04   -0.63897E-04   -0.87874E-06  3880   0.278E-03    0.159E-03
RMM:  28    -0.115099129595E+04   -0.18742E-04   -0.20067E-06  3116   0.151E-03    0.736E-04
RMM:  29    -0.115099130189E+04   -0.59405E-05   -0.70728E-07  2949   0.948E-04    0.524E-04
RMM:  30    -0.115099130451E+04   -0.26161E-05   -0.39291E-07  2460   0.766E-04    0.481E-04
RMM:  31    -0.115099130510E+04   -0.59573E-06   -0.16292E-07  2137   0.554E-04
   1 F= -.11620807E+04 E0= -.11620807E+04  d E =-.116208E+04
