 vasp.6.0.8 29Jun18 (build Mar 14 2019 11:44:20) complex                        
  
 executed on             LinuxIFC date 2021.01.08  13:27:43
 running   64 mpi-ranks, with    1 threads/rank
 distrk:  each k-point on   64 cores,    1 groups
 distr:  one band on NCORES_PER_BAND=   4 cores,   16 groups


--------------------------------------------------------------------------------------------------------


 INCAR:
 POTCAR:    PAW_PBE C 08Apr2002                   
 POTCAR:    PAW_PBE Zn 06Sep2000                  
 POTCAR:    PAW_PBE H 15Jun2001                   
 POTCAR:    PAW_PBE N 08Apr2002                   
 POTCAR:    PAW_PBE O 08Apr2002                   
 POTCAR:    PAW_PBE C 08Apr2002                   
   VRHFIN =C: s2p2                                                              
   LEXCH  = PE                                                                  
   EATOM  =   147.1560 eV,   10.8157 Ry                                         
                                                                                
   TITEL  = PAW_PBE C 08Apr2002                                                 
   LULTRA =        F    use ultrasoft PP ?                                      
   IUNSCR =        1    unscreen: 0-lin 1-nonlin 2-no                           
   RPACOR =    1.200    partial core radius                                     
   POMASS =   12.011; ZVAL   =    4.000    mass and valenz                      
   RCORE  =    1.500    outmost cutoff radius                                   
   RWIGS  =    1.630; RWIGS  =    0.863    wigner-seitz radius (au A)           
   ENMAX  =  400.000; ENMIN  =  300.000 eV                                      
   ICORE  =        2    local potential                                         
   LCOR   =        T    correct aug charges                                     
   LPAW   =        T    paw PP                                                  
   EAUG   =  644.873                                                            
   DEXC   =    0.000                                                            
   RMAX   =    1.529    core radius for proj-oper                               
   RAUG   =    1.300    factor for augmentation sphere                          
   RDEP   =    1.501    radius for radial grids                                 
   RDEPT  =    1.300    core radius for aug-charge                              
                                                                                
   Atomic configuration                                                         
    4 entries                                                                   
     n  l   j            E        occ.                                          
     1  0  0.50      -273.3789   2.0000                                         
     2  0  0.50       -13.7508   2.0000                                         
     2  1  0.50        -5.2854   2.0000                                         
     3  2  1.50        -5.4423   0.0000                                         
   Description                                                                  
     l       E           TYP  RCUT    TYP  RCUT                                 
     0    -13.7508458     23  1.200                                             
     0     -8.2022199     23  1.200                                             
     1     -5.2854383     23  1.500                                             
     1     34.0145650     23  1.500                                             
     2     -5.4423304      7  1.500                                             
  local pseudopotential read in
  partial core-charges read in
  partial kinetic energy density read in
  atomic valenz-charges read in
  non local Contribution for L=           0  read in
    real space projection operators read in
  non local Contribution for L=           0  read in
    real space projection operators read in
  non local Contribution for L=           1  read in
    real space projection operators read in
  non local Contribution for L=           1  read in
    real space projection operators read in
    PAW grid and wavefunctions read in
 
   number of l-projection  operators is LMAX  =           4
   number of lm-projection operators is LMMAX =           8
 
 POTCAR:    PAW_PBE Zn 06Sep2000                  
   VRHFIN =Zn: d10 p2                                                           
   LEXCH  = PE                                                                  
   EATOM  =  1748.8345 eV,  128.5357 Ry                                         
                                                                                
   TITEL  = PAW_PBE Zn 06Sep2000                                                
   LULTRA =        F    use ultrasoft PP ?                                      
   IUNSCR =        1    unscreen: 0-lin 1-nonlin 2-no                           
   RPACOR =    2.000    partial core radius                                     
   POMASS =   65.390; ZVAL   =   12.000    mass and valenz                      
   RCORE  =    2.300    outmost cutoff radius                                   
   RWIGS  =    2.400; RWIGS  =    1.270    wigner-seitz radius (au A)           
   ENMAX  =  276.723; ENMIN  =  207.542 eV                                      
   RCLOC  =    1.828    cutoff for local pot                                    
   LCOR   =        T    correct aug charges                                     
   LPAW   =        T    paw PP                                                  
   EAUG   =  575.892                                                            
   DEXC   =    0.000                                                            
   RMAX   =    2.347    core radius for proj-oper                               
   RAUG   =    1.300    factor for augmentation sphere                          
   RDEP   =    2.324    radius for radial grids                                 
   RDEPT  =    1.788    core radius for aug-charge                              
                                                                                
   Atomic configuration                                                         
    9 entries                                                                   
     n  l   j            E        occ.                                          
     1  0  0.50     -9524.6913   2.0000                                         
     2  0  0.50     -1158.1882   2.0000                                         
     2  1  1.50     -1003.8506   6.0000                                         
     3  0  0.50      -129.2194   2.0000                                         
     3  1  1.50       -83.3890   6.0000                                         
     3  2  2.50       -10.1410  10.0000                                         
     4  0  0.50        -5.9785   2.0000                                         
     4  1  0.50        -4.0817   0.0000                                         
     4  3  2.50        -1.3606   0.0000                                         
   Description                                                                  
     l       E           TYP  RCUT    TYP  RCUT                                 
     2    -10.1410010     23  2.300                                             
     2    -11.5015836     23  2.300                                             
     0     -5.9785163     23  2.300                                             
     0      1.1858015     23  2.300                                             
     1     -2.7211652     23  2.300                                             
     1     13.2444212     23  2.300                                             
  local pseudopotential read in
  partial core-charges read in
  partial kinetic energy density read in
  atomic valenz-charges read in
  non local Contribution for L=           2  read in
    real space projection operators read in
  non local Contribution for L=           2  read in
    real space projection operators read in
  non local Contribution for L=           0  read in
    real space projection operators read in
  non local Contribution for L=           0  read in
    real space projection operators read in
  non local Contribution for L=           1  read in
    real space projection operators read in
  non local Contribution for L=           1  read in
    real space projection operators read in
    PAW grid and wavefunctions read in
 
   number of l-projection  operators is LMAX  =           6
   number of lm-projection operators is LMMAX =          18
 
 POTCAR:    PAW_PBE H 15Jun2001                   
   VRHFIN =H: ultrasoft test                                                    
   LEXCH  = PE                                                                  
   EATOM  =    12.4884 eV,    0.9179 Ry                                         
                                                                                
   TITEL  = PAW_PBE H 15Jun2001                                                 
   LULTRA =        F    use ultrasoft PP ?                                      
   IUNSCR =        0    unscreen: 0-lin 1-nonlin 2-no                           
   RPACOR =    0.000    partial core radius                                     
   POMASS =    1.000; ZVAL   =    1.000    mass and valenz                      
   RCORE  =    1.100    outmost cutoff radius                                   
   RWIGS  =    0.700; RWIGS  =    0.370    wigner-seitz radius (au A)           
   ENMAX  =  250.000; ENMIN  =  200.000 eV                                      
   RCLOC  =    0.701    cutoff for local pot                                    
   LCOR   =        T    correct aug charges                                     
   LPAW   =        T    paw PP                                                  
   EAUG   =  400.000                                                            
   RMAX   =    1.123    core radius for proj-oper                               
   RAUG   =    1.200    factor for augmentation sphere                          
   RDEP   =    1.112    radius for radial grids                                 
   RDEPT  =    0.926    core radius for aug-charge                              
                                                                                
   Atomic configuration                                                         
    2 entries                                                                   
     n  l   j            E        occ.                                          
     1  0  0.50        -6.4927   1.0000                                         
     2  1  0.50        -3.4015   0.0000                                         
   Description                                                                  
     l       E           TYP  RCUT    TYP  RCUT                                 
     0     -6.4927494     23  1.100                                             
     0      6.8029130     23  1.100                                             
     1     -4.0817478     23  1.100                                             
  local pseudopotential read in
  atomic valenz-charges read in
  non local Contribution for L=           0  read in
    real space projection operators read in
  non local Contribution for L=           0  read in
    real space projection operators read in
  non local Contribution for L=           1  read in
    real space projection operators read in
    PAW grid and wavefunctions read in
 
   number of l-projection  operators is LMAX  =           3
   number of lm-projection operators is LMMAX =           5
 
 POTCAR:    PAW_PBE N 08Apr2002                   
   VRHFIN =N: s2p3                                                              
   LEXCH  = PE                                                                  
   EATOM  =   264.5486 eV,   19.4438 Ry                                         
                                                                                
   TITEL  = PAW_PBE N 08Apr2002                                                 
   LULTRA =        F    use ultrasoft PP ?                                      
   IUNSCR =        1    unscreen: 0-lin 1-nonlin 2-no                           
   RPACOR =    1.200    partial core radius                                     
   POMASS =   14.001; ZVAL   =    5.000    mass and valenz                      
   RCORE  =    1.500    outmost cutoff radius                                   
   RWIGS  =    1.400; RWIGS  =    0.741    wigner-seitz radius (au A)           
   ENMAX  =  400.000; ENMIN  =  300.000 eV                                      
   ICORE  =        2    local potential                                         
   LCOR   =        T    correct aug charges                                     
   LPAW   =        T    paw PP                                                  
   EAUG   =  627.112                                                            
   DEXC   =    0.000                                                            
   RMAX   =    1.529    core radius for proj-oper                               
   RAUG   =    1.300    factor for augmentation sphere                          
   RDEP   =    1.514    radius for radial grids                                 
   RDEPT  =    1.338    core radius for aug-charge                              
                                                                                
   Atomic configuration                                                         
    4 entries                                                                   
     n  l   j            E        occ.                                          
     1  0  0.50      -384.7179   2.0000                                         
     2  0  0.50       -18.5828   2.0000                                         
     2  1  0.50        -7.0898   3.0000                                         
     3  2  1.50        -6.8029   0.0000                                         
   Description                                                                  
     l       E           TYP  RCUT    TYP  RCUT                                 
     0    -18.5828119     23  1.200                                             
     0    -13.5018863     23  1.200                                             
     1     -7.0897853     23  1.500                                             
     1      9.5240782     23  1.500                                             
     2     -6.8029130      7  1.500                                             
  local pseudopotential read in
  partial core-charges read in
  partial kinetic energy density read in
  atomic valenz-charges read in
  non local Contribution for L=           0  read in
    real space projection operators read in
  non local Contribution for L=           0  read in
    real space projection operators read in
  non local Contribution for L=           1  read in
    real space projection operators read in
  non local Contribution for L=           1  read in
    real space projection operators read in
    PAW grid and wavefunctions read in
 
   number of l-projection  operators is LMAX  =           4
   number of lm-projection operators is LMMAX =           8
 
 POTCAR:    PAW_PBE O 08Apr2002                   
   VRHFIN =O: s2p4                                                              
   LEXCH  = PE                                                                  
   EATOM  =   432.3788 eV,   31.7789 Ry                                         
                                                                                
   TITEL  = PAW_PBE O 08Apr2002                                                 
   LULTRA =        F    use ultrasoft PP ?                                      
   IUNSCR =        1    unscreen: 0-lin 1-nonlin 2-no                           
   RPACOR =    1.200    partial core radius                                     
   POMASS =   16.000; ZVAL   =    6.000    mass and valenz                      
   RCORE  =    1.520    outmost cutoff radius                                   
   RWIGS  =    1.550; RWIGS  =    0.820    wigner-seitz radius (au A)           
   ENMAX  =  400.000; ENMIN  =  300.000 eV                                      
   ICORE  =        2    local potential                                         
   LCOR   =        T    correct aug charges                                     
   LPAW   =        T    paw PP                                                  
   EAUG   =  605.392                                                            
   DEXC   =    0.000                                                            
   RMAX   =    1.553    core radius for proj-oper                               
   RAUG   =    1.300    factor for augmentation sphere                          
   RDEP   =    1.550    radius for radial grids                                 
   RDEPT  =    1.329    core radius for aug-charge                              
                                                                                
   Atomic configuration                                                         
    4 entries                                                                   
     n  l   j            E        occ.                                          
     1  0  0.50      -514.6923   2.0000                                         
     2  0  0.50       -23.9615   2.0000                                         
     2  1  0.50        -9.0305   4.0000                                         
     3  2  1.50        -9.5241   0.0000                                         
   Description                                                                  
     l       E           TYP  RCUT    TYP  RCUT                                 
     0    -23.9615318     23  1.200                                             
     0     -9.5240782     23  1.200                                             
     1     -9.0304911     23  1.520                                             
     1      8.1634956     23  1.520                                             
     2     -9.5240782      7  1.500                                             
  local pseudopotential read in
  partial core-charges read in
  partial kinetic energy density read in
  kinetic energy density of atom read in
  atomic valenz-charges read in
  non local Contribution for L=           0  read in
    real space projection operators read in
  non local Contribution for L=           0  read in
    real space projection operators read in
  non local Contribution for L=           1  read in
    real space projection operators read in
  non local Contribution for L=           1  read in
    real space projection operators read in
    PAW grid and wavefunctions read in
 
   number of l-projection  operators is LMAX  =           4
   number of lm-projection operators is LMMAX =           8
 
 Optimization of the real space projectors (new method)

 maximal supplied QI-value         = 25.13
 optimisation between [QCUT,QGAM] = [ 12.32, 24.88] = [ 42.47,173.37] Ry 
 Optimized for a Real-space Cutoff    1.06 Angstroem

   l    n(q)    QCUT    max X(q) W(low)/X(q) W(high)/X(q)  e(spline) 
   0      8    12.315   115.676    0.34E-03    0.18E-03    0.23E-06
   0      8    12.315    87.132    0.34E-03    0.18E-03    0.22E-06
   1      7    12.315     4.429    0.45E-03    0.12E-03    0.18E-06
   1      7    12.315     2.733    0.35E-03    0.97E-04    0.15E-06
 Optimization of the real space projectors (new method)

 maximal supplied QI-value         = 16.25
 optimisation between [QCUT,QGAM] = [ 12.51, 25.03] = [ 43.85,175.40] Ry 
 Optimized for a Real-space Cutoff    1.31 Angstroem

   l    n(q)    QCUT    max X(q) W(low)/X(q) W(high)/X(q)  e(spline) 
   2      9    12.514    46.356    0.36E-03    0.54E-03    0.48E-06
   2      9    12.514    41.843    0.37E-03    0.56E-03    0.49E-06
   0     10    12.514    48.958    0.13E-03    0.28E-03    0.23E-06
   0     10    12.514    32.776    0.12E-03    0.26E-03    0.22E-06
   1      9    12.514    17.787    0.44E-03    0.44E-04    0.36E-06
   1      9    12.514    14.435    0.39E-03    0.39E-04    0.32E-06
 Optimization of the real space projectors (new method)

 maximal supplied QI-value         = 34.20
 optimisation between [QCUT,QGAM] = [ 12.31, 24.97] = [ 42.46,174.58] Ry 
 Optimized for a Real-space Cutoff    1.00 Angstroem

   l    n(q)    QCUT    max X(q) W(low)/X(q) W(high)/X(q)  e(spline) 
   0      7    12.313    19.460    0.14E-03    0.42E-03    0.16E-06
   0      7    12.313    12.209    0.12E-03    0.40E-03    0.16E-06
   1      7    12.313     4.655    0.33E-03    0.59E-03    0.89E-07
 Optimization of the real space projectors (new method)

 maximal supplied QI-value         = 25.13
 optimisation between [QCUT,QGAM] = [ 12.32, 24.88] = [ 42.47,173.37] Ry 
 Optimized for a Real-space Cutoff    1.20 Angstroem

   l    n(q)    QCUT    max X(q) W(low)/X(q) W(high)/X(q)  e(spline) 
   0      9    12.315    79.467    0.14E-03    0.22E-04    0.37E-06
   0      9    12.315    66.151    0.14E-03    0.23E-04    0.36E-06
   1      8    12.315    22.077    0.30E-03    0.54E-03    0.45E-06
   1      8    12.315    15.894    0.30E-03    0.55E-03    0.45E-06
 Optimization of the real space projectors (new method)

 maximal supplied QI-value         = 24.76
 optimisation between [QCUT,QGAM] = [ 12.38, 25.00] = [ 42.90,175.06] Ry 
 Optimized for a Real-space Cutoff    1.13 Angstroem

   l    n(q)    QCUT    max X(q) W(low)/X(q) W(high)/X(q)  e(spline) 
   0      8    12.378    20.381    0.16E-03    0.54E-05    0.27E-06
   0      8    12.378    15.268    0.17E-03    0.61E-05    0.29E-06
   1      8    12.378     5.964    0.38E-03    0.23E-03    0.28E-06
   1      8    12.378     5.382    0.33E-03    0.20E-03    0.25E-06
  PAW_PBE C 08Apr2002                   :
 energy of atom  1       EATOM= -147.1560
 kinetic energy error for atom=    0.0057 (will be added to EATOM!!)
  PAW_PBE Zn 06Sep2000                  :
 energy of atom  2       EATOM=-1748.8345
 kinetic energy error for atom=    0.0020 (will be added to EATOM!!)
  PAW_PBE H 15Jun2001                   :
 energy of atom  3       EATOM=  -12.4884
 kinetic energy error for atom=    0.0004 (will be added to EATOM!!)
  PAW_PBE N 08Apr2002                   :
 energy of atom  4       EATOM= -264.5486
 kinetic energy error for atom=    0.0103 (will be added to EATOM!!)
  PAW_PBE O 08Apr2002                   :
 energy of atom  5       EATOM= -432.3788
 kinetic energy error for atom=    0.0168 (will be added to EATOM!!)
 
 
 POSCAR: Zn_H
  positions in direct lattice
  velocities in cartesian coordinates
 exchange correlation table for  LEXCH =        8
   RHO(1)=    0.500       N(1)  =     2000
   RHO(2)=  100.500       N(2)  =     4000
 


--------------------------------------------------------------------------------------------------------


 ion  position               nearest neighbor table
   1  0.928  0.960  0.125- 107 1.08 117 1.34  65 1.40
   2  0.841  0.951  0.407- 112 1.09 118 1.35  65 1.40
   3  0.929  0.796  0.918- 116 1.08 119 1.34  66 1.40
   4  0.572  0.460  0.626- 110 1.08 120 1.34  67 1.40
   5  0.657  0.304  0.136- 111 1.09 121 1.35  68 1.40
   6  0.159  0.804  0.137- 115 1.09 122 1.35  69 1.40
   7  0.659  0.452  0.909- 101 1.09 123 1.35  67 1.40
   8  0.570  0.296  0.418- 113 1.08 124 1.34  68 1.40
   9  0.341  0.452  0.409- 114 1.09 125 1.35  70 1.40
  10  0.072  0.796  0.420- 104 1.08 126 1.34  69 1.40
  11  0.158  0.952  0.909- 105 1.09 127 1.35  71 1.40
  12  0.341  0.304  0.636- 102 1.09 128 1.35  72 1.40
  13  0.842  0.804  0.635- 108 1.09 129 1.35  66 1.40
  14  0.071  0.960  0.626- 109 1.08 130 1.34  71 1.40
  15  0.427  0.296  0.920- 106 1.08 131 1.34  72 1.40
  16  0.429  0.460  0.127- 103 1.08 132 1.34  70 1.40
  17  0.767  0.031  0.103- 141 1.23 133 1.42  33 1.48
  18  0.860  0.052  0.436- 142 1.23 133 1.41  34 1.48
  19  0.863  0.703  0.608- 143 1.23 134 1.41  35 1.48
  20  0.640  0.552  0.937- 144 1.23 135 1.41  36 1.48
  21  0.637  0.203  0.108- 145 1.23 136 1.41  37 1.48
  22  0.232  0.725  0.442- 146 1.23 137 1.42  38 1.48
  23  0.732  0.531  0.604- 147 1.23 135 1.42  39 1.48
  24  0.730  0.224  0.440- 148 1.23 136 1.42  40 1.48
  25  0.269  0.531  0.105- 149 1.23 138 1.42  41 1.48
  26  0.139  0.704  0.109- 150 1.23 137 1.41  42 1.48
  27  0.139  0.052  0.938- 151 1.23 139 1.41  43 1.48
  28  0.360  0.204  0.609- 152 1.23 140 1.41  44 1.48
  29  0.770  0.724  0.940- 153 1.23 134 1.42  45 1.48
  30  0.231  0.031  0.606- 154 1.23 139 1.42  46 1.48
  31  0.268  0.225  0.942- 155 1.23 140 1.42  47 1.48
  32  0.361  0.552  0.438- 156 1.23 138 1.41  48 1.48
  33  0.735  0.075  0.107-  49 1.39  73 1.42  17 1.48
  34  0.825  0.096  0.434-  50 1.39  73 1.42  18 1.48
  35  0.828  0.659  0.610-  51 1.39  74 1.42  19 1.48
  36  0.675  0.596  0.935-  52 1.39  75 1.42  20 1.48
  37  0.672  0.159  0.109-  53 1.39  76 1.42  21 1.48
  38  0.264  0.680  0.438-  54 1.39  77 1.42  22 1.48
  39  0.765  0.575  0.608-  55 1.39  75 1.42  23 1.48
  40  0.762  0.180  0.436-  56 1.39  76 1.42  24 1.48
  41  0.236  0.576  0.109-  57 1.39  78 1.42  25 1.48
  42  0.173  0.660  0.111-  58 1.39  77 1.42  26 1.48
  43  0.173  0.096  0.936-  59 1.39  79 1.42  27 1.48
  44  0.326  0.160  0.611-  60 1.39  80 1.42  28 1.48
  45  0.738  0.680  0.936-  61 1.39  74 1.42  29 1.48
  46  0.263  0.076  0.609-  62 1.39  79 1.42  30 1.48
  47  0.236  0.180  0.938-  63 1.39  80 1.42  31 1.48
  48  0.327  0.596  0.436-  64 1.39  78 1.42  32 1.48
  49  0.675  0.086  0.948-  88 1.09  33 1.39  53 1.41
  50  0.853  0.127  0.594-  99 1.09  34 1.39  56 1.40
  51  0.856  0.628  0.451-  93 1.09  35 1.39  55 1.41
  52  0.647  0.627  0.094-  90 1.09  36 1.39  61 1.40
  53  0.644  0.128  0.950-  98 1.09  37 1.39  49 1.41
  54  0.323  0.669  0.597-  96 1.09  38 1.39  64 1.40
  55  0.824  0.586  0.450-  86 1.09  39 1.39  51 1.41
  56  0.822  0.169  0.595-  87 1.09  40 1.39  50 1.40
  57  0.177  0.587  0.951-  95 1.09  41 1.39  58 1.41
  58  0.145  0.629  0.952-  91 1.09  42 1.39  57 1.41
  59  0.145  0.128  0.095-  92 1.09  43 1.39  63 1.41
  60  0.354  0.129  0.452-  85 1.09  44 1.39  62 1.40
  61  0.679  0.669  0.095-  89 1.09  45 1.39  52 1.40
  62  0.323  0.087  0.451- 100 1.09  46 1.39  60 1.40
  63  0.177  0.169  0.096-  94 1.09  47 1.39  59 1.41
  64  0.355  0.628  0.596-  97 1.09  48 1.39  54 1.40
  65  0.861  0.980  0.269-   1 1.40   2 1.40 133 1.42
  66  0.863  0.775  0.774-   3 1.40  13 1.40 134 1.42
  67  0.639  0.480  0.770-   4 1.40   7 1.40 135 1.42
  68  0.637  0.276  0.274-   8 1.40   5 1.40 136 1.42
  69  0.139  0.776  0.276-  10 1.40   6 1.40 137 1.42
  70  0.361  0.480  0.270-  16 1.40   9 1.40 138 1.42
  71  0.138  0.980  0.770-  14 1.40  11 1.40 139 1.42
  72  0.360  0.276  0.775-  15 1.40  12 1.40 140 1.42
  73  0.764  0.106  0.271-  33 1.42  34 1.42  76 1.43
  74  0.768  0.649  0.772-  45 1.42  35 1.42  75 1.43
  75  0.736  0.606  0.772-  39 1.42  36 1.42  74 1.43
  76  0.733  0.149  0.272-  40 1.42  37 1.42  73 1.43
  77  0.234  0.649  0.274-  38 1.42  42 1.42  78 1.43
  78  0.266  0.607  0.273-  41 1.42  48 1.42  77 1.43
  79  0.234  0.107  0.773-  46 1.42  43 1.42  80 1.43
  80  0.265  0.149  0.774-  47 1.42  44 1.42  79 1.43
  81  0.040  0.878  0.022- 127 1.98 122 1.98 119 2.02 117 2.02
  82  0.960  0.878  0.522- 118 1.98 129 1.98 126 2.02 130 2.02
  83  0.460  0.378  0.522- 125 1.98 128 1.98 124 2.02 120 2.02
  84  0.539  0.378  0.022- 123 1.98 121 1.98 131 2.02 132 2.02
  85  0.400  0.138  0.328-  60 1.09
  86  0.845  0.562  0.325-  55 1.09
  87  0.843  0.194  0.719-  56 1.09
  88  0.654  0.062  0.824-  49 1.09
  89  0.657  0.694  0.219-  61 1.09
  90  0.600  0.618  0.217-  52 1.09
  91  0.099  0.638  0.828-  58 1.09
  92  0.099  0.119  0.219-  59 1.09
  93  0.903  0.637  0.327-  51 1.09
  94  0.155  0.194  0.221-  63 1.09
  95  0.155  0.562  0.826-  57 1.09
  96  0.345  0.694  0.721-  54 1.09
  97  0.401  0.619  0.719-  64 1.09
  98  0.597  0.137  0.826-  53 1.09
  99  0.900  0.118  0.717-  50 1.09
 100  0.344  0.062  0.326-  62 1.09
 101  0.704  0.455  0.048-   7 1.09
 102  0.295  0.300  0.497-  12 1.09
 103  0.463  0.471  0.995-  16 1.08
 104  0.038  0.785  0.551-  10 1.08
 105  0.204  0.955  0.048-  11 1.09
 106  0.462  0.285  0.052-  15 1.08
 107  0.962  0.971  0.993-   1 1.08
 108  0.797  0.800  0.495-  13 1.09
 109  0.037  0.971  0.495-  14 1.08
 110  0.538  0.471  0.494-   4 1.08
 111  0.703  0.300  0.997-   5 1.09
 112  0.795  0.955  0.546-   2 1.09
 113  0.536  0.285  0.550-   8 1.08
 114  0.296  0.455  0.547-   9 1.09
 115  0.205  0.801  0.998-   6 1.09
 116  0.964  0.785  0.050-   3 1.08
 117  0.948  0.921  0.176-   1 1.34 118 1.37  81 2.02
 118  0.894  0.916  0.348-   2 1.35 117 1.37  82 1.98
 119  0.949  0.835  0.868-   3 1.34 129 1.37  81 2.02
 120  0.552  0.421  0.676-   4 1.34 123 1.37  83 2.02
 121  0.605  0.340  0.195-   5 1.35 124 1.37  84 1.98
 122  0.106  0.840  0.196-   6 1.35 126 1.37  81 1.98
 123  0.606  0.416  0.849-   7 1.35 120 1.37  84 1.98
 124  0.551  0.335  0.368-   8 1.34 121 1.37  83 2.02
 125  0.394  0.416  0.349-   9 1.35 132 1.37  83 1.98
 126  0.052  0.835  0.368-  10 1.34 122 1.37  82 2.02
 127  0.106  0.916  0.849-  11 1.35 130 1.37  81 1.98
 128  0.393  0.340  0.695-  12 1.35 131 1.37  83 1.98
 129  0.895  0.840  0.694-  13 1.35 119 1.37  82 1.98
 130  0.052  0.921  0.676-  14 1.34 127 1.37  82 2.02
 131  0.447  0.335  0.869-  15 1.34 128 1.37  84 2.02
 132  0.448  0.421  0.177-  16 1.34 125 1.37  84 2.02
 133  0.825  0.022  0.273-  18 1.41  17 1.42  65 1.42
 134  0.828  0.733  0.769-  19 1.41  29 1.42  66 1.42
 135  0.674  0.522  0.774-  20 1.41  23 1.42  67 1.42
 136  0.672  0.233  0.270-  21 1.41  24 1.42  68 1.42
 137  0.174  0.734  0.271-  26 1.41  22 1.42  69 1.42
 138  0.326  0.522  0.275-  32 1.41  25 1.42  70 1.42
 139  0.173  0.022  0.775-  27 1.41  30 1.42  71 1.42
 140  0.325  0.234  0.771-  28 1.41  31 1.42  72 1.42
 141  0.746  0.003  0.961-  17 1.23
 142  0.915  0.042  0.571-  18 1.23
 143  0.919  0.713  0.474-  19 1.23
 144  0.585  0.542  0.072-  20 1.23
 145  0.581  0.213  0.973-  21 1.23
 146  0.254  0.753  0.584-  22 1.23
 147  0.754  0.503  0.462-  23 1.23
 148  0.752  0.252  0.581-  24 1.23
 149  0.246  0.504  0.963-  25 1.23
 150  0.083  0.714  0.974-  26 1.23
 151  0.083  0.043  0.073-  27 1.23
 152  0.416  0.214  0.474-  28 1.23
 153  0.748  0.752  0.081-  29 1.23
 154  0.254  0.004  0.464-  30 1.23
 155  0.246  0.253  0.084-  31 1.23
 156  0.416  0.543  0.574-  32 1.23
 

IMPORTANT INFORMATION: All symmetrisations will be switched off!
NOSYMM: (Re-)initialisation of all symmetry stuff for point group C_1.


----------------------------------------------------------------------------------------

                                     Primitive cell                                     

  volume of cell :    2773.3807

  direct lattice vectors                    reciprocal lattice vectors
    13.353249537 -0.001436800 -0.009953987     0.074888175  0.000000103  0.000048910
     0.001452841 31.982956060 -2.291610618     0.000004971  0.031419475  0.002132871
    -0.004261356 -0.442982493  6.525618248     0.000115978  0.011033622  0.153991263

  length of vectors
    13.353253324 32.064949083  6.540637979     0.074888191  0.031491786  0.154386085

  position of ions in fractional coordinates (direct lattice)
     0.927890213  0.959519785  0.124824123
     0.840950008  0.951430238  0.407290621
     0.929487125  0.796133941  0.918040805
     0.571743851  0.459528231  0.625644117
     0.657323264  0.303971065  0.135854067
     0.159099262  0.804342950  0.136673680
     0.658639850  0.451530836  0.908793856
     0.570260722  0.296089566  0.418420124
     0.341332389  0.451751347  0.408662973
     0.072227530  0.796459054  0.419508353
     0.158394507  0.951738301  0.908799358
     0.340583176  0.304320352  0.636081370
     0.842480623  0.803826220  0.634664019
     0.071074594  0.959766157  0.626216217
     0.427380203  0.296473301  0.919537638
     0.428603986  0.459817177  0.126550328
     0.767485851  0.030930762  0.102802031
     0.859735689  0.052133025  0.436123915
     0.863233245  0.703057578  0.607885632
     0.640074549  0.552236350  0.936786143
     0.636854818  0.203182231  0.107602315
     0.231853460  0.724865623  0.442003499
     0.732104556  0.530896415  0.603823760
     0.729884726  0.224419535  0.439898818
     0.268512937  0.531355683  0.105176717
     0.139174475  0.703692671  0.109169612
     0.138723946  0.052481998  0.937771537
     0.360067592  0.203693170  0.608620961
     0.770255381  0.724425917  0.939528962
     0.231413213  0.031277699  0.605529796
     0.267978514  0.224852436  0.941622637
     0.360984682  0.552498187  0.438254317
     0.735000683  0.075318742  0.106992358
     0.825175687  0.096058342  0.434421797
     0.828482339  0.659151366  0.609606154
     0.674767722  0.596134140  0.934856423
     0.671565451  0.159257454  0.109039245
     0.263892606  0.680444253  0.438124054
     0.764791371  0.575250966  0.607871012
     0.762000834  0.180006185  0.436158520
     0.236329131  0.575766244  0.109164664
     0.173451076  0.659743090  0.110943627
     0.173114178  0.096434415  0.936079647
     0.325892644  0.159730452  0.610583584
     0.738134527  0.680031096  0.936149597
     0.263364056  0.075713579  0.609214710
     0.235865784  0.180434800  0.937716133
     0.326670705  0.596454878  0.436436707
     0.675367947  0.086307812  0.948464889
     0.853231703  0.127205313  0.593678498
     0.856357741  0.627956692  0.450632948
     0.646866277  0.627330236  0.093820599
     0.643552580  0.128113895  0.949761413
     0.323416566  0.669419197  0.596681852
     0.824418102  0.586169316  0.449518157
     0.821618933  0.169025849  0.594692712
     0.176777960  0.586784164  0.950606100
     0.145275674  0.628622295  0.951692154
     0.145075678  0.127565628  0.095211920
     0.354003123  0.128597239  0.451522925
     0.678563473  0.669133182  0.094617750
     0.322742236  0.086736260  0.450718592
     0.176524814  0.169412613  0.096245621
     0.354841708  0.627576878  0.595662796
     0.860562901  0.979866702  0.268502167
     0.862756292  0.775482308  0.773629689
     0.639008682  0.479931208  0.769714499
     0.637118402  0.275544740  0.274363152
     0.139361635  0.775999098  0.275832415
     0.361454074  0.480231819  0.270410184
     0.138300189  0.980195691  0.770289601
     0.360271631  0.275990092  0.775444445
     0.764353087  0.106430366  0.271278898
     0.767529729  0.648857713  0.772407727
     0.735584863  0.606416608  0.771843248
     0.732513409  0.148889003  0.272027019
     0.234298572  0.649348957  0.273992347
     0.265883266  0.606863915  0.273315065
     0.233799998  0.106830625  0.773097558
     0.265291133  0.149329563  0.773663305
     0.040172831  0.877947127  0.021870040
     0.959945140  0.877903910  0.521578366
     0.459530802  0.377941989  0.522148596
     0.539479028  0.377963201  0.022483517
     0.400401403  0.137554333  0.327642729
     0.845474233  0.561538036  0.324994344
     0.842978687  0.193644225  0.719162746
     0.654216968  0.061707440  0.823737195
     0.657310465  0.693809957  0.218777029
     0.600187614  0.618463403  0.217478020
     0.098655935  0.637577241  0.827890991
     0.098570743  0.118627537  0.218978964
     0.903117480  0.636798145  0.327018084
     0.155304311  0.194001318  0.220823359
     0.155429556  0.562190079  0.826024649
     0.344785616  0.694018188  0.721208206
     0.401452049  0.618625941  0.719462998
     0.596780373  0.137022827  0.826071261
     0.899907458  0.118289584  0.717467037
     0.344122181  0.062127160  0.326372681
     0.704167338  0.455251212  0.047919958
     0.295108703  0.300469948  0.496907233
     0.463172950  0.471331157  0.995300426
     0.038040299  0.785043058  0.551414197
     0.204066859  0.955485875  0.047722166
     0.461533492  0.285074546  0.051678995
     0.962150373  0.970997510  0.993179163
     0.797024471  0.799915749  0.495452056
     0.036525207  0.971250593  0.494700840
     0.537541276  0.470954826  0.493628448
     0.702855719  0.300167040  0.997018668
     0.795396662  0.955103591  0.546134052
     0.535822174  0.284680653  0.550069955
     0.295698206  0.455482152  0.547357730
     0.204611016  0.800521765  0.997801236
     0.963908117  0.784802875  0.050089778
     0.947825748  0.921198953  0.175534133
     0.893860072  0.915905715  0.348153936
     0.948507182  0.834535026  0.867541232
     0.551849969  0.421212237  0.676384525
     0.605150946  0.339683946  0.195449276
     0.106359347  0.839937563  0.195539801
     0.605754632  0.415977933  0.849473298
     0.551125293  0.334510547  0.368163296
     0.393806610  0.416124628  0.349111397
     0.052476051  0.834762734  0.368438274
     0.105843748  0.916114347  0.849114139
     0.393294719  0.339928215  0.695283357
     0.894512746  0.839595169  0.694330778
     0.051636010  0.921371240  0.676435590
     0.447146558  0.334773764  0.868551910
     0.447969117  0.421403042  0.176722613
     0.825188134  0.021870481  0.273143957
     0.827976867  0.733408997  0.769417975
     0.674453588  0.521920563  0.774107383
     0.672007974  0.233472443  0.269794018
     0.174361467  0.733959498  0.271451224
     0.326366269  0.522276789  0.275248947
     0.173424260  0.022236635  0.775168800
     0.325216260  0.233956387  0.771030728
     0.745764076  0.003244529  0.960662386
     0.915237347  0.042209745  0.571449020
     0.919380334  0.712892617  0.473699314
     0.584644322  0.542374819  0.072049797
     0.580792742  0.213079076  0.973129435
     0.253786746  0.752548249  0.584020755
     0.753650638  0.503164093  0.461912318
     0.752107015  0.252150516  0.581458867
     0.246396904  0.503648989  0.963424130
     0.083413875  0.713638630  0.974311479
     0.083263440  0.042521309  0.072782853
     0.415516984  0.213639456  0.473567118
     0.748178667  0.752209963  0.080813449
     0.253765243  0.003519164  0.464330023
     0.246304873  0.252526189  0.083711568
     0.416344425  0.542520293  0.573679065

  ion indices of the primitive-cell ions
   primitive index   ion index
                 1           1
                 2           2
                 3           3
                 4           4
                 5           5
                 6           6
                 7           7
                 8           8
                 9           9
                10          10
                11          11
                12          12
                13          13
                14          14
                15          15
                16          16
                17          17
                18          18
                19          19
                20          20
                21          21
                22          22
                23          23
                24          24
                25          25
                26          26
                27          27
                28          28
                29          29
                30          30
                31          31
                32          32
                33          33
                34          34
                35          35
                36          36
                37          37
                38          38
                39          39
                40          40
                41          41
                42          42
                43          43
                44          44
                45          45
                46          46
                47          47
                48          48
                49          49
                50          50
                51          51
                52          52
                53          53
                54          54
                55          55
                56          56
                57          57
                58          58
                59          59
                60          60
                61          61
                62          62
                63          63
                64          64
                65          65
                66          66
                67          67
                68          68
                69          69
                70          70
                71          71
                72          72
                73          73
                74          74
                75          75
                76          76
                77          77
                78          78
                79          79
                80          80
                81          81
                82          82
                83          83
                84          84
                85          85
                86          86
                87          87
                88          88
                89          89
                90          90
                91          91
                92          92
                93          93
                94          94
                95          95
                96          96
                97          97
                98          98
                99          99
               100         100
               101         101
               102         102
               103         103
               104         104
               105         105
               106         106
               107         107
               108         108
               109         109
               110         110
               111         111
               112         112
               113         113
               114         114
               115         115
               116         116
               117         117
               118         118
               119         119
               120         120
               121         121
               122         122
               123         123
               124         124
               125         125
               126         126
               127         127
               128         128
               129         129
               130         130
               131         131
               132         132
               133         133
               134         134
               135         135
               136         136
               137         137
               138         138
               139         139
               140         140
               141         141
               142         142
               143         143
               144         144
               145         145
               146         146
               147         147
               148         148
               149         149
               150         150
               151         151
               152         152
               153         153
               154         154
               155         155
               156         156

----------------------------------------------------------------------------------------

 
 

Automatic generation of k-mesh.
 generate k-points for:    2    1    4
Space group operators:
 irot       det(A)        alpha          n_x          n_y          n_z        tau_x        tau_y        tau_z
    1     1.000000     0.000001     1.000000     0.000000     0.000000     0.000000     0.000000     0.000000
 
 Subroutine IBZKPT returns following result:
 ===========================================
 
 Found      6 irreducible k-points:
 
 Following reciprocal coordinates:
            Coordinates               Weight
  0.000000  0.000000  0.000000      1.000000
  0.500000  0.000000 -0.000000      1.000000
  0.000000  0.000000  0.250000      2.000000
  0.500000 -0.000000  0.250000      2.000000
  0.000000  0.000000  0.500000      1.000000
  0.500000  0.000000  0.500000      1.000000
 
 Following cartesian coordinates:
            Coordinates               Weight
  0.000000  0.000000  0.000000      1.000000
  0.037444  0.000000  0.000024      1.000000
  0.000029  0.002758  0.038498      2.000000
  0.037473  0.002758  0.038522      2.000000
  0.000058  0.005517  0.076996      1.000000
  0.037502  0.005517  0.077020      1.000000
 


--------------------------------------------------------------------------------------------------------




 Dimension of arrays:
   k-points           NKPTS =      6   k-points in BZ     NKDIM =      6   number of bands    NBANDS=    400
   number of dos      NEDOS =    301   number of ions     NIONS =    156
   non local maximal  LDIM  =      6   non local SUM 2l+1 LMDIM =     18
   total plane-waves  NPLWV = 614400
   max r-space proj   IRMAX =   2120   max aug-charges    IRDMAX=   6802
   dimension x,y,z NGX =    80 NGY =  192 NGZ =   40
   dimension x,y,z NGXF=   160 NGYF=  384 NGZF=   80
   support grid    NGXF=   160 NGYF=  384 NGZF=   80
   ions per type =              80   4  32  24  16
   NGX,Y,Z   is equivalent  to a cutoff of   9.96,  9.95, 10.17 a.u.
   NGXF,Y,Z  is equivalent  to a cutoff of  19.92, 19.91, 20.33 a.u.

 SYSTEM =  flex_MOF                                
 POSCAR =  Zn_H                                    

 Startparameter for this run:
   NWRITE =      2    write-flag & timer
   PREC   = normal    normal or accurate (medium, high low for compatibility)
   ISTART =      0    job   : 0-new  1-cont  2-samecut
   ICHARG =      2    charge: 1-file 2-atom 10-const
   ISPIN  =      1    spin polarized calculation?
   LNONCOLLINEAR =      F non collinear calculations
   LSORBIT =      F    spin-orbit coupling
   INIWAV =      1    electr: 0-lowe 1-rand  2-diag
   LASPH  =      F    aspherical Exc in radial PAW
   METAGGA=      F    non-selfconsistent MetaGGA calc.

 Electronic Relaxation 1
   ENCUT  =  600.0 eV  44.10 Ry    6.64 a.u.  26.67 64.04 13.06*2*pi/ulx,y,z
   ENINI  =  600.0     initial cutoff
   ENAUG  =  644.9 eV  augmentation charge cutoff
   NELM   =     80;   NELMIN=  4; NELMDL=-12     # of ELM steps 
   EDIFF  = 0.1E-05   stopping-criterion for ELM
   LREAL  =      T    real-space projection
   NLSPLINE    = F    spline interpolate recip. space projectors
   LCOMPAT=      F    compatible to vasp.4.4
   GGA_COMPAT  = T    GGA compatible to vasp.4.4-vasp.4.6
   LMAXPAW     = -100 max onsite density
   LMAXMIX     =    2 max onsite mixed and CHGCAR
   VOSKOWN=      0    Vosko Wilk Nusair interpolation
   ROPT   =   -0.00050  -0.00050  -0.00050  -0.00050
   ROPT   =   -0.00050
 Ionic relaxation
   EDIFFG = -.1E-01   stopping-criterion for IOM
   NSW    =   1000    number of steps for IOM
   NBLOCK =      1;   KBLOCK =   1000    inner block; outer block 
   IBRION =      2    ionic relax: 0-MD 1-quasi-New 2-CG
   NFREE  =      1    steps in history (QN), initial steepest desc. (CG)
   ISIF   =      4    stress and relaxation
   IWAVPR =     11    prediction:  0-non 1-charg 2-wave 3-comb
   ISYM   =      0    0-nonsym 1-usesym 2-fastsym
   LCORR  =      T    Harris-Foulkes like correction to forces

   POTIM  = 0.5000    time-step for ionic-motion
   TEIN   =    0.0    initial temperature
   TEBEG  =    0.0;   TEEND  =   0.0 temperature during run
   SMASS  =  -3.00    Nose mass-parameter (am)
   estimated Nose-frequenzy (Omega)   =  0.10E-29 period in steps = 0.13E+47 mass=  -0.407E-26a.u.
   SCALEE = 1.0000    scale energy and forces
   NPACO  =    256;   APACO  = 16.0  distance and # of slots for P.C.
   PSTRESS=    0.0 pullay stress

  Mass of Ions in am
   POMASS =  12.01 65.39  1.00 14.00 16.00
  Ionic Valenz
   ZVAL   =   4.00 12.00  1.00  5.00  6.00
  Atomic Wigner-Seitz radii
   RWIGS  =  -1.00 -1.00 -1.00 -1.00 -1.00
  virtual crystal weights 
   VCA    =   1.00  1.00  1.00  1.00  1.00
   NELECT =     616.0000    total number of electrons
   NUPDOWN=      -1.0000    fix difference up-down

 DOS related values:
   EMIN   =  10.00;   EMAX   =-10.00  energy-range for DOS
   EFERMI =   0.00
   ISMEAR =     0;   SIGMA  =   0.05  broadening in eV -4-tet -1-fermi 0-gaus

 Electronic relaxation 2 (details)
   IALGO  =     48    algorithm
   LDIAG  =      T    sub-space diagonalisation (order eigenvalues)
   LSUBROT=      F    optimize rotation matrix (better conditioning)
   TURBO    =      0    0=normal 1=particle mesh
   IRESTART =      0    0=no restart 2=restart with 2 vectors
   NREBOOT  =      0    no. of reboots
   NMIN     =      0    reboot dimension
   EREF     =   0.00    reference energy to select bands
   IMIX   =      4    mixing-type and parameters
     AMIX     =   0.40;   BMIX     =  1.00
     AMIX_MAG =   1.60;   BMIX_MAG =  1.00
     AMIN     =   0.10
     WC   =   100.;   INIMIX=   1;  MIXPRE=   1;  MAXMIX= -45

 Intra band minimization:
   WEIMIN = 0.0010     energy-eigenvalue tresh-hold
   EBREAK =  0.63E-09  absolut break condition
   DEPER  =   0.30     relativ break condition  

   TIME   =   0.40     timestep for ELM

  volume/ion in A,a.u.               =      17.78       119.97
  Fermi-wavevector in a.u.,A,eV,Ry     =   0.991437  1.873545 13.373817  0.982948
  Thomas-Fermi vector in A             =   2.123179
 
 Write flags
   LWAVE        =      T    write WAVECAR
   LDOWNSAMPLE  =      F    k-point downsampling of WAVECAR
   LCHARG       =      T    write CHGCAR
   LVTOT        =      F    write LOCPOT, total local potential
   LVHAR        =      F    write LOCPOT, Hartree potential only
   LELF         =      F    write electronic localiz. function (ELF)
   LORBIT       =      0    0 simple, 1 ext, 2 COOP (PROOUT), +10 PAW based schemes


 Dipole corrections
   LMONO  =      F    monopole corrections only (constant potential shift)
   LDIPOL =      F    correct potential (dipole corrections)
   IDIPOL =      0    1-x, 2-y, 3-z, 4-all directions 
   EPSILON=  1.0000000 bulk dielectric constant

 Exchange correlation treatment:
   GGA     =    PE    GGA type
   LEXCH   =     8    internal setting for exchange type
   VOSKOWN=      0    Vosko Wilk Nusair interpolation
   LHFCALC =     F    Hartree Fock is set to
   LHFONE  =     F    Hartree Fock one center treatment
   AEXX    =    0.0000 exact exchange contribution

 Linear response parameters
   LEPSILON=     F    determine dielectric tensor
   LRPA    =     F    only Hartree local field effects (RPA)
   LNABLA  =     F    use nabla operator in PAW spheres
   LVEL    =     F    velocity operator in full k-point grid
   LINTERFAST=   F  fast interpolation
   KINTER  =     0    interpolate to denser k-point grid
   CSHIFT  =0.1000    complex shift for real part using Kramers Kronig
   OMEGAMAX=  -1.0    maximum frequency
   DEG_THRESHOLD= 0.2000000E-02 threshold for treating states as degnerate
   RTIME   =   -0.100 relaxation time in fs
  (WPLASMAI=    0.000 imaginary part of plasma frequency in eV, 0.658/RTIME)
   DFIELD  = 0.0000000 0.0000000 0.0000000 field for delta impulse in time
 
 Orbital magnetization related:
   ORBITALMAG=     F  switch on orbital magnetization
   LCHIMAG   =     F  perturbation theory with respect to B field
   DQ        =  0.001000  dq finite difference perturbation B field
   LLRAUG    =     F  two centre corrections for induced B field



--------------------------------------------------------------------------------------------------------


 conjugate gradient relaxation of ions
 charge density and potential will be updated during run
 non-spin polarized calculation
 RMM-DIIS sequential band-by-band
 perform sub-space diagonalisation
    before iterative eigenvector-optimisation
 modified Broyden-mixing scheme, WC =      100.0
 initial mixing is a Kerker type mixing with AMIX =  0.4000 and BMIX =      1.0000
 Hartree-type preconditioning will be used
 using additional bands           92
 real space projection scheme for non local part
 use partial core corrections
 calculate Harris-corrections to forces 
   (improved forces if not selfconsistent)
 use gradient corrections 
 use of overlap-Matrix (Vanderbilt PP)
 Gauss-broadening in eV      SIGMA  =   0.05


--------------------------------------------------------------------------------------------------------


  energy-cutoff  :      600.00
  volume of cell :     2773.38
      direct lattice vectors                 reciprocal lattice vectors
    13.353249537 -0.001436800 -0.009953987     0.074888175  0.000000103  0.000048910
     0.001452841 31.982956060 -2.291610618     0.000004971  0.031419475  0.002132871
    -0.004261356 -0.442982493  6.525618248     0.000115978  0.011033622  0.153991263

  length of vectors
    13.353253324 32.064949083  6.540637979     0.074888191  0.031491786  0.154386085


 
 k-points in units of 2pi/SCALE and weight: read from INCAR                         
   0.00000000  0.00000000  0.00000000       0.125
   0.03744409  0.00000005  0.00002446       0.125
   0.00002899  0.00275841  0.03849782       0.250
   0.03747308  0.00275846  0.03852227       0.250
   0.00005799  0.00551681  0.07699563       0.125
   0.03750208  0.00551686  0.07702009       0.125
 
 k-points in reciprocal lattice and weights: read from INCAR                         
   0.00000000  0.00000000  0.00000000       0.125
   0.50000000  0.00000000 -0.00000000       0.125
   0.00000000  0.00000000  0.25000000       0.250
   0.50000000 -0.00000000  0.25000000       0.250
   0.00000000  0.00000000  0.50000000       0.125
   0.50000000  0.00000000  0.50000000       0.125
 
 position of ions in fractional coordinates (direct lattice) 
   0.92789021  0.95951979  0.12482412
   0.84095001  0.95143024  0.40729062
   0.92948713  0.79613394  0.91804081
   0.57174385  0.45952823  0.62564412
   0.65732326  0.30397107  0.13585407
   0.15909926  0.80434295  0.13667368
   0.65863985  0.45153084  0.90879386
   0.57026072  0.29608957  0.41842012
   0.34133239  0.45175135  0.40866297
   0.07222753  0.79645905  0.41950835
   0.15839451  0.95173830  0.90879936
   0.34058318  0.30432035  0.63608137
   0.84248062  0.80382622  0.63466402
   0.07107459  0.95976616  0.62621622
   0.42738020  0.29647330  0.91953764
   0.42860399  0.45981718  0.12655033
   0.76748585  0.03093076  0.10280203
   0.85973569  0.05213303  0.43612391
   0.86323325  0.70305758  0.60788563
   0.64007455  0.55223635  0.93678614
   0.63685482  0.20318223  0.10760232
   0.23185346  0.72486562  0.44200350
   0.73210456  0.53089641  0.60382376
   0.72988473  0.22441953  0.43989882
   0.26851294  0.53135568  0.10517672
   0.13917448  0.70369267  0.10916961
   0.13872395  0.05248200  0.93777154
   0.36006759  0.20369317  0.60862096
   0.77025538  0.72442592  0.93952896
   0.23141321  0.03127770  0.60552980
   0.26797851  0.22485244  0.94162264
   0.36098468  0.55249819  0.43825432
   0.73500068  0.07531874  0.10699236
   0.82517569  0.09605834  0.43442180
   0.82848234  0.65915137  0.60960615
   0.67476772  0.59613414  0.93485642
   0.67156545  0.15925745  0.10903924
   0.26389261  0.68044425  0.43812405
   0.76479137  0.57525097  0.60787101
   0.76200083  0.18000619  0.43615852
   0.23632913  0.57576624  0.10916466
   0.17345108  0.65974309  0.11094363
   0.17311418  0.09643442  0.93607965
   0.32589264  0.15973045  0.61058358
   0.73813453  0.68003110  0.93614960
   0.26336406  0.07571358  0.60921471
   0.23586578  0.18043480  0.93771613
   0.32667071  0.59645488  0.43643671
   0.67536795  0.08630781  0.94846489
   0.85323170  0.12720531  0.59367850
   0.85635774  0.62795669  0.45063295
   0.64686628  0.62733024  0.09382060
   0.64355258  0.12811390  0.94976141
   0.32341657  0.66941920  0.59668185
   0.82441810  0.58616932  0.44951816
   0.82161893  0.16902585  0.59469271
   0.17677796  0.58678416  0.95060610
   0.14527567  0.62862230  0.95169215
   0.14507568  0.12756563  0.09521192
   0.35400312  0.12859724  0.45152292
   0.67856347  0.66913318  0.09461775
   0.32274224  0.08673626  0.45071859
   0.17652481  0.16941261  0.09624562
   0.35484171  0.62757688  0.59566280
   0.86056290  0.97986670  0.26850217
   0.86275629  0.77548231  0.77362969
   0.63900868  0.47993121  0.76971450
   0.63711840  0.27554474  0.27436315
   0.13936163  0.77599910  0.27583242
   0.36145407  0.48023182  0.27041018
   0.13830019  0.98019569  0.77028960
   0.36027163  0.27599009  0.77544445
   0.76435309  0.10643037  0.27127890
   0.76752973  0.64885771  0.77240773
   0.73558486  0.60641661  0.77184325
   0.73251341  0.14888900  0.27202702
   0.23429857  0.64934896  0.27399235
   0.26588327  0.60686391  0.27331507
   0.23380000  0.10683063  0.77309756
   0.26529113  0.14932956  0.77366331
   0.04017283  0.87794713  0.02187004
   0.95994514  0.87790391  0.52157837
   0.45953080  0.37794199  0.52214860
   0.53947903  0.37796320  0.02248352
   0.40040140  0.13755433  0.32764273
   0.84547423  0.56153804  0.32499434
   0.84297869  0.19364423  0.71916275
   0.65421697  0.06170744  0.82373720
   0.65731047  0.69380996  0.21877703
   0.60018761  0.61846340  0.21747802
   0.09865594  0.63757724  0.82789099
   0.09857074  0.11862754  0.21897896
   0.90311748  0.63679814  0.32701808
   0.15530431  0.19400132  0.22082336
   0.15542956  0.56219008  0.82602465
   0.34478562  0.69401819  0.72120821
   0.40145205  0.61862594  0.71946300
   0.59678037  0.13702283  0.82607126
   0.89990746  0.11828958  0.71746704
   0.34412218  0.06212716  0.32637268
   0.70416734  0.45525121  0.04791996
   0.29510870  0.30046995  0.49690723
   0.46317295  0.47133116  0.99530043
   0.03804030  0.78504306  0.55141420
   0.20406686  0.95548588  0.04772217
   0.46153349  0.28507455  0.05167900
   0.96215037  0.97099751  0.99317916
   0.79702447  0.79991575  0.49545206
   0.03652521  0.97125059  0.49470084
   0.53754128  0.47095483  0.49362845
   0.70285572  0.30016704  0.99701867
   0.79539666  0.95510359  0.54613405
   0.53582217  0.28468065  0.55006996
   0.29569821  0.45548215  0.54735773
   0.20461102  0.80052176  0.99780124
   0.96390812  0.78480287  0.05008978
   0.94782575  0.92119895  0.17553413
   0.89386007  0.91590572  0.34815394
   0.94850718  0.83453503  0.86754123
   0.55184997  0.42121224  0.67638452
   0.60515095  0.33968395  0.19544928
   0.10635935  0.83993756  0.19553980
   0.60575463  0.41597793  0.84947330
   0.55112529  0.33451055  0.36816330
   0.39380661  0.41612463  0.34911140
   0.05247605  0.83476273  0.36843827
   0.10584375  0.91611435  0.84911414
   0.39329472  0.33992821  0.69528336
   0.89451275  0.83959517  0.69433078
   0.05163601  0.92137124  0.67643559
   0.44714656  0.33477376  0.86855191
   0.44796912  0.42140304  0.17672261
   0.82518813  0.02187048  0.27314396
   0.82797687  0.73340900  0.76941797
   0.67445359  0.52192056  0.77410738
   0.67200797  0.23347244  0.26979402
   0.17436147  0.73395950  0.27145122
   0.32636627  0.52227679  0.27524895
   0.17342426  0.02223663  0.77516880
   0.32521626  0.23395639  0.77103073
   0.74576408  0.00324453  0.96066239
   0.91523735  0.04220974  0.57144902
   0.91938033  0.71289262  0.47369931
   0.58464432  0.54237482  0.07204980
   0.58079274  0.21307908  0.97312943
   0.25378675  0.75254825  0.58402076
   0.75365064  0.50316409  0.46191232
   0.75210701  0.25215052  0.58145887
   0.24639690  0.50364899  0.96342413
   0.08341387  0.71363863  0.97431148
   0.08326344  0.04252131  0.07278285
   0.41551698  0.21363946  0.47356712
   0.74817867  0.75220996  0.08081345
   0.25376524  0.00351916  0.46433002
   0.24630487  0.25252619  0.08371157
   0.41634443  0.54252029  0.57367907
 
 position of ions in cartesian coordinates  (Angst):
  12.39121166 30.63165104 -1.39352736
  11.22906197 30.24792062  0.46914467
  12.40891808 25.05470537  4.15710273
   7.63263984 14.41910035  3.02396376
   8.77726427  9.66076781  0.18340547
   2.12507831 25.66449260 -0.95294426
   8.79176559 14.03776480  4.88915282
   7.61348085  9.28364744  2.04625163
   4.55681143 14.26682251  1.62814275
   0.96384169 25.28717629  0.91165839
   2.11259138 30.03659446  3.74788742
   4.54562370  9.45080220  3.45005028
  11.24831729 25.42638314  2.29113236
   0.94780265 30.41865389  1.88633018
   5.70342675  9.07413943  5.31689609
   5.72338474 14.64963716 -0.23216911
  10.24803695  0.94261497  0.59232600
  11.47848246  1.47293772  2.71795178
  11.52539994 22.21533664  2.34710275
   8.54388550 17.24625138  4.84122678
   8.50391797  6.44978740  0.23021783
   3.09516669 22.98721243  1.22092848
   9.77417303 16.71110146  2.71642813
   9.74478436  6.98168394  2.34906430
   3.58584404 16.94734821 -0.53399000
   1.85898864 22.45761157 -0.90157573
   1.84849554  1.26291374  5.99788990
   4.80577479  6.24458392  3.50125851
  10.28246111 22.75198068  4.46323811
   3.08758344  0.73178169  3.87747649
   3.57469805  6.77393820  5.62672818
   4.81925367 17.47586759  1.59017642
   9.81430102  2.36046423  0.51827387
  11.01706519  2.87860288  2.60652870
  11.06129131 20.81037397  2.45929207
   9.00722411 18.65103746  4.72769218
   8.96734777  5.04425678  0.33990766
   3.52294539 21.56815818  1.29709026
  10.21069542 18.12785131  2.64087022
  10.17359018  5.56282448  2.42611497
   3.15613316 18.36600890 -0.60941753
   2.31662123 21.05113896 -0.78962504
   2.30778795  2.66934204  5.88578512
   4.34935595  4.83770594  3.61515145
   9.85349324 21.33364624  4.54324103
   3.51427988  2.15129421  3.79937506
   3.14584088  5.35510756  5.70334340
   4.36112219 18.88258696  1.47792533
   9.01444036  2.33925524  5.98481329
  11.39107078  3.80418685  3.57412113
  11.43415062 19.88305838  1.49310219
   8.63827843 20.02138508 -0.83179811
   8.58965705  3.67580875  5.89778733
   4.31709199 21.14522046  2.35645056
  11.00759669 18.54711430  1.58190581
  10.96899401  5.14132734  3.48521780
   2.35736184 18.34573629  4.85685205
   1.93676011 19.68340754  4.76837609
   1.93701134  4.03754020  0.32754181
   4.72535477  3.91239445  2.64824770
   9.06159633 21.35796819 -0.92270780
   4.30786295  2.57395784  2.73923916
   2.35701588  5.37542739  0.23807731
   4.73666332 19.80738568  2.44537409
  11.49159057 31.21885546 -0.50189633
  11.51843000 24.45827256  3.26272066
   8.53025962 15.00773057  3.91668684
   8.50683217  8.69028184  1.15260607
   1.86088266 24.69635590  0.02030206
   4.82613183 15.23892686  0.66049139
   1.84489852 31.00813219  2.77901238
   4.80789351  8.48295304  4.42420646
  10.20559612  3.28268769  1.51875721
  10.24666718 20.40912184  3.54586875
   9.82004016 19.05202580  3.63976164
   9.78049144  4.64035477  1.42665743
   3.12842312 20.64638871  0.29758229
   3.55012259 19.28784610  0.39020739
   3.11885048  3.07395458  4.79779809
   3.53941879  4.43290037  4.70378547
   0.53762016 28.06959861 -1.86959731
  12.81743982 27.84553285  1.38225210
   6.13455349 11.85573910  2.53667237
   7.20425139 12.07764553 -0.72479560
   5.34546349  4.25367890  1.81886481
  11.28925932 17.81446476  0.82554665
  11.25372149  5.87352705  4.24083338
   8.73250184  1.60774519  5.22747298
   8.77730637 22.09223455 -0.16882975
   8.01442675 19.68308654 -0.00407302
   1.31477568 20.02472193  3.94043976
   1.31547893  3.69691383  1.15614383
  12.05908470 20.22052620  0.66571216
   2.07315806  6.10669161  0.99488756
   2.07278643 17.61436281  4.10045363
   4.60194334 21.87677521  3.11247799
   5.35852227 19.46619997  3.27329505
   7.96563613  4.01560249  5.07068239
  12.01380332  3.46413223  4.40188465
   4.59384883  1.84193840  1.98398688
   9.40337939 14.53804007 -0.73756043
   3.93897918  9.38937193  2.55112927
   6.18130742 14.63299753  5.41023272
   0.50675238 24.86367614  1.79892689
   2.72614049 30.53782948 -1.88021622
   6.16316583  9.09397066 -0.32063656
  12.84501243 30.61402730  4.24638264
  10.64191750 25.36304849  1.39210198
   0.48703318 30.84426874  1.00213709
   7.17650349 14.84308640  2.13663505
   9.38159525  9.15755756  5.81130102
  10.62019046 30.30396554  1.36721944
   7.15303675  8.86048758  2.93183576
   3.94686118 14.32477090  2.52511648
   2.72913300 25.16074997  4.67474908
  12.87223236 25.07674203 -1.48119056
  12.65714407 29.38354524 -0.97499520
  11.93578365 29.13786185  0.16412295
  12.66316864 26.30522868  3.73937214
   7.36671998 13.17119306  3.44307965
   8.08039222 10.77664663  0.49098036
   1.42062993 26.77691263 -0.64985044
   8.08577720 12.92703181  4.58404933
   7.35823068 10.53475436  1.63043931
   5.25771481 13.15367963  1.32065214
   0.70036853 26.53489274  0.49081403
   1.41107057 28.92375014  3.44056379
   5.24929354 10.56334572  3.75425581
  11.94291291 26.54387377  2.59800843
   0.68796460 29.16845258  2.30222233
   5.96764473 10.32165883  4.89621619
   5.98170256 13.39878632  0.18307354
  11.01781087  0.57729903  1.72410065
  11.05396848 23.11455941  3.33199846
   9.00360658 16.34867737  3.84877705
   8.97267968  7.34665932  1.21885568
   2.32820175 23.35369570  0.08770209
   4.35763609 16.58155621  0.59606587
   2.31250646  0.36755793  5.00577169
   4.33974814  7.14059647  4.49207805
   9.95428479 -0.32285850  6.25405747
  12.21901886  1.09553549  3.62321960
  12.27573214 22.58925177  1.44835710
   7.80738248 17.31399318 -0.77856196
   7.75163313  6.38298495  5.85619572
   3.38748236 23.80964196  2.08402275
  10.06244768 15.88697316  1.85370544
  10.04096117  7.80586215  3.20906133
   3.28682558 15.68104944  5.13031808
   1.11073120 22.39255018  4.72177261
   1.11158912  1.32759599  0.37668203
   5.54679432  6.62244237  2.59660373
   9.99136490 24.02102428 -1.20386198
   3.38661705 -0.09350142  3.01944994
   3.28898058  8.03909737 -0.03487368
   5.55789455 17.09667470  2.49622103
 


--------------------------------------------------------------------------------------------------------


 k-point  1 :   0.0000 0.0000 0.0000  plane waves:   92449
 k-point  2 :   0.5000 0.0000-0.0000  plane waves:   92436
 k-point  3 :   0.0000 0.0000 0.2500  plane waves:   92596
 k-point  4 :   0.5000-0.0000 0.2500  plane waves:   92569
 k-point  5 :   0.0000 0.0000 0.5000  plane waves:   92626
 k-point  6 :   0.5000 0.0000 0.5000  plane waves:   92656

 maximum and minimum number of plane-waves per node :     23195    23022

 maximum number of plane-waves:     92656
 maximum index in each direction: 
   IXMAX=   26   IYMAX=   64   IZMAX=   13
   IXMIN=  -27   IYMIN=  -64   IZMIN=  -13


 real space projection operators:
  total allocation   :      11255.53 KBytes
  max/ min on nodes  :       2827.99       2807.72


 parallel 3D FFT for wavefunctions:
    minimum data exchange during FFTs selected (reduces bandwidth)
 parallel 3D FFT for charge:
    minimum data exchange during FFTs selected (reduces bandwidth)


 total amount of memory used by VASP MPI-rank0   114322. kBytes
=======================================================================

   base      :      30000. kBytes
   nonlr-proj:       5746. kBytes
   fftplans  :       7836. kBytes
   grid      :      13725. kBytes
   one-center:        606. kBytes
   wavefun   :      56409. kBytes
 
     INWAV:  cpu time    0.0002: real time    0.0001
 Broyden mixing: mesh for mixing (old mesh)
   NGX = 53   NGY =129   NGZ = 27
  (NGX  =160   NGY  =384   NGZ  = 80)
  gives a total of 184599 points

 initial charge density was supplied:
 charge density of overlapping atoms calculated
 number of electron     616.0000000 magnetization 
 keeping initial charge density in first step


--------------------------------------------------------------------------------------------------------


 Maximum index for non-local projection operator          504
 Maximum index for augmentation-charges          290 (set IRDMAX)


--------------------------------------------------------------------------------------------------------


 First call to EWALD:  gamma=   0.126
 Maximum number of real-space cells 3x 1x 5
 Maximum number of reciprocal cells 3x 6x 2

    FEWALD:  cpu time    0.0143: real time    0.0143


--------------------------------------- Iteration      1(   1)  ---------------------------------------


    POTLOK:  cpu time    0.1203: real time    0.1498
    SETDIJ:  cpu time    0.0303: real time    0.0304
    EDDIAG:  cpu time    3.9314: real time    3.9776
  RMM-DIIS:  cpu time    5.0282: real time    5.0296
    ORTHCH:  cpu time    0.9332: real time    0.9334
       DOS:  cpu time    0.0052: real time    0.0056
    --------------------------------------------
      LOOP:  cpu time   10.0488: real time   10.1266

 eigenvalue-minimisations  :  2400
 total energy-change (2. order) : 0.7322439E+04  (-0.2430360E+05)
 number of electron     616.0000000 magnetization 
 augmentation part      616.0000000 magnetization 

 Free energy of the ion-electron system (eV)
  ---------------------------------------------------
  alpha Z        PSCENC =       696.58831994
  Ewald energy   TEWEN  =     13655.81147260
  -Hartree energ DENC   =    -41663.24343172
  -exchange      EXHF   =         0.00000000
  -V(xc)+E(xc)   XCENC  =      2272.35691564
  PAW double counting   =     25034.14638475   -25847.60581054
  entropy T*S    EENTRO =        -0.06107554
  eigenvalues    EBANDS =       740.76628661
  atomic energy  EATOM  =     32433.67991533
  Solvation  Ediel_sol  =         0.00000000
  ---------------------------------------------------
  free energy    TOTEN  =      7322.43897708 eV

  energy without entropy =     7322.50005262  energy(sigma->0) =     7322.46951485


--------------------------------------------------------------------------------------------------------




--------------------------------------- Iteration      1(   2)  ---------------------------------------


    EDDIAG:  cpu time    3.8699: real time    3.8702
  RMM-DIIS:  cpu time    4.9842: real time    4.9845
    ORTHCH:  cpu time    0.9324: real time    0.9324
       DOS:  cpu time    0.0029: real time    0.0029
    --------------------------------------------
      LOOP:  cpu time    9.7893: real time    9.7900

 eigenvalue-minimisations  :  2400
 total energy-change (2. order) :-0.4650957E+04  (-0.6744159E+04)
 number of electron     616.0000000 magnetization 
 augmentation part      616.0000000 magnetization 

 Free energy of the ion-electron system (eV)
  ---------------------------------------------------
  alpha Z        PSCENC =       696.58831994
  Ewald energy   TEWEN  =     13655.81147260
  -Hartree energ DENC   =    -41663.24343172
  -exchange      EXHF   =         0.00000000
  -V(xc)+E(xc)   XCENC  =      2272.35691564
  PAW double counting   =     25034.14638475   -25847.60581054
  entropy T*S    EENTRO =        -0.03918233
  eigenvalues    EBANDS =     -3910.21223502
  atomic energy  EATOM  =     32433.67991533
  Solvation  Ediel_sol  =         0.00000000
  ---------------------------------------------------
  free energy    TOTEN  =      2671.48234866 eV

  energy without entropy =     2671.52153099  energy(sigma->0) =     2671.50193982


--------------------------------------------------------------------------------------------------------




--------------------------------------- Iteration      1(   3)  ---------------------------------------


    EDDIAG:  cpu time    3.8514: real time    3.8518
  RMM-DIIS:  cpu time    4.9710: real time    4.9715
    ORTHCH:  cpu time    0.9381: real time    0.9382
       DOS:  cpu time    0.0049: real time    0.0049
    --------------------------------------------
      LOOP:  cpu time    9.7654: real time    9.7664

 eigenvalue-minimisations  :  2400
 total energy-change (2. order) :-0.2127764E+04  (-0.2713417E+04)
 number of electron     616.0000000 magnetization 
 augmentation part      616.0000000 magnetization 

 Free energy of the ion-electron system (eV)
  ---------------------------------------------------
  alpha Z        PSCENC =       696.58831994
  Ewald energy   TEWEN  =     13655.81147260
  -Hartree energ DENC   =    -41663.24343172
  -exchange      EXHF   =         0.00000000
  -V(xc)+E(xc)   XCENC  =      2272.35691564
  PAW double counting   =     25034.14638475   -25847.60581054
  entropy T*S    EENTRO =        -0.04897930
  eigenvalues    EBANDS =     -6037.96651503
  atomic energy  EATOM  =     32433.67991533
  Solvation  Ediel_sol  =         0.00000000
  ---------------------------------------------------
  free energy    TOTEN  =       543.71827167 eV

  energy without entropy =      543.76725098  energy(sigma->0) =      543.74276132


--------------------------------------------------------------------------------------------------------




--------------------------------------- Iteration      1(   4)  ---------------------------------------


    EDDIAG:  cpu time    3.8704: real time    3.8708
  RMM-DIIS:  cpu time    4.9645: real time    4.9650
    ORTHCH:  cpu time    0.9455: real time    0.9498
       DOS:  cpu time    0.0034: real time    0.0034
    --------------------------------------------
      LOOP:  cpu time    9.7839: real time    9.7891

 eigenvalue-minimisations  :  2400
 total energy-change (2. order) :-0.1147669E+04  (-0.1123832E+04)
 number of electron     616.0000000 magnetization 
 augmentation part      616.0000000 magnetization 

 Free energy of the ion-electron system (eV)
  ---------------------------------------------------
  alpha Z        PSCENC =       696.58831994
  Ewald energy   TEWEN  =     13655.81147260
  -Hartree energ DENC   =    -41663.24343172
  -exchange      EXHF   =         0.00000000
  -V(xc)+E(xc)   XCENC  =      2272.35691564
  PAW double counting   =     25034.14638475   -25847.60581054
  entropy T*S    EENTRO =        -0.01357998
  eigenvalues    EBANDS =     -7185.67108032
  atomic energy  EATOM  =     32433.67991533
  Solvation  Ediel_sol  =         0.00000000
  ---------------------------------------------------
  free energy    TOTEN  =      -603.95089430 eV

  energy without entropy =     -603.93731432  energy(sigma->0) =     -603.94410431


--------------------------------------------------------------------------------------------------------




--------------------------------------- Iteration      1(   5)  ---------------------------------------


    EDDIAG:  cpu time    3.8488: real time    3.8491
  RMM-DIIS:  cpu time    4.9709: real time    4.9713
    ORTHCH:  cpu time    0.9311: real time    0.9312
       DOS:  cpu time    0.0027: real time    0.0027
    --------------------------------------------
      LOOP:  cpu time    9.7534: real time    9.7543

 eigenvalue-minimisations  :  2400
 total energy-change (2. order) :-0.4212783E+03  (-0.3759057E+03)
 number of electron     616.0000000 magnetization 
 augmentation part      616.0000000 magnetization 

 Free energy of the ion-electron system (eV)
  ---------------------------------------------------
  alpha Z        PSCENC =       696.58831994
  Ewald energy   TEWEN  =     13655.81147260
  -Hartree energ DENC   =    -41663.24343172
  -exchange      EXHF   =         0.00000000
  -V(xc)+E(xc)   XCENC  =      2272.35691564
  PAW double counting   =     25034.14638475   -25847.60581054
  entropy T*S    EENTRO =        -0.00680708
  eigenvalues    EBANDS =     -7606.95618622
  atomic energy  EATOM  =     32433.67991533
  Solvation  Ediel_sol  =         0.00000000
  ---------------------------------------------------
  free energy    TOTEN  =     -1025.22922730 eV

  energy without entropy =    -1025.22242022  energy(sigma->0) =    -1025.22582376


--------------------------------------------------------------------------------------------------------




--------------------------------------- Iteration      1(   6)  ---------------------------------------


    EDDIAG:  cpu time    3.8520: real time    3.8523
  RMM-DIIS:  cpu time    4.9659: real time    4.9663
    ORTHCH:  cpu time    0.9299: real time    0.9299
       DOS:  cpu time    0.0016: real time    0.0016
    --------------------------------------------
      LOOP:  cpu time    9.7493: real time    9.7501

 eigenvalue-minimisations  :  2400
 total energy-change (2. order) :-0.1397795E+03  (-0.1225635E+03)
 number of electron     616.0000000 magnetization 
 augmentation part      616.0000000 magnetization 

 Free energy of the ion-electron system (eV)
  ---------------------------------------------------
  alpha Z        PSCENC =       696.58831994
  Ewald energy   TEWEN  =     13655.81147260
  -Hartree energ DENC   =    -41663.24343172
  -exchange      EXHF   =         0.00000000
  -V(xc)+E(xc)   XCENC  =      2272.35691564
  PAW double counting   =     25034.14638475   -25847.60581054
  entropy T*S    EENTRO =        -0.00000000
  eigenvalues    EBANDS =     -7746.74249056
  atomic energy  EATOM  =     32433.67991533
  Solvation  Ediel_sol  =         0.00000000
  ---------------------------------------------------
  free energy    TOTEN  =     -1165.00872456 eV

  energy without entropy =    -1165.00872456  energy(sigma->0) =    -1165.00872456


--------------------------------------------------------------------------------------------------------




--------------------------------------- Iteration      1(   7)  ---------------------------------------


    EDDIAG:  cpu time    3.8417: real time    3.8420
  RMM-DIIS:  cpu time    4.9803: real time    4.9807
    ORTHCH:  cpu time    0.9307: real time    0.9308
       DOS:  cpu time    0.0016: real time    0.0016
    --------------------------------------------
      LOOP:  cpu time    9.7543: real time    9.7552

 eigenvalue-minimisations  :  2400
 total energy-change (2. order) :-0.4622520E+02  (-0.4248177E+02)
 number of electron     616.0000000 magnetization 
 augmentation part      616.0000000 magnetization 

 Free energy of the ion-electron system (eV)
  ---------------------------------------------------
  alpha Z        PSCENC =       696.58831994
  Ewald energy   TEWEN  =     13655.81147260
  -Hartree energ DENC   =    -41663.24343172
  -exchange      EXHF   =         0.00000000
  -V(xc)+E(xc)   XCENC  =      2272.35691564
  PAW double counting   =     25034.14638475   -25847.60581054
  entropy T*S    EENTRO =        -0.00000000
  eigenvalues    EBANDS =     -7792.96768884
  atomic energy  EATOM  =     32433.67991533
  Solvation  Ediel_sol  =         0.00000000
  ---------------------------------------------------
  free energy    TOTEN  =     -1211.23392284 eV

  energy without entropy =    -1211.23392284  energy(sigma->0) =    -1211.23392284


--------------------------------------------------------------------------------------------------------




--------------------------------------- Iteration      1(   8)  ---------------------------------------


    EDDIAG:  cpu time    3.8499: real time    3.8503
  RMM-DIIS:  cpu time    4.9622: real time    4.9628
    ORTHCH:  cpu time    0.9305: real time    0.9305
       DOS:  cpu time    0.0015: real time    0.0015
    --------------------------------------------
      LOOP:  cpu time    9.7441: real time    9.7450

 eigenvalue-minimisations  :  2400
 total energy-change (2. order) :-0.1700861E+02  (-0.1519531E+02)
 number of electron     616.0000000 magnetization 
 augmentation part      616.0000000 magnetization 

 Free energy of the ion-electron system (eV)
  ---------------------------------------------------
  alpha Z        PSCENC =       696.58831994
  Ewald energy   TEWEN  =     13655.81147260
  -Hartree energ DENC   =    -41663.24343172
  -exchange      EXHF   =         0.00000000
  -V(xc)+E(xc)   XCENC  =      2272.35691564
  PAW double counting   =     25034.14638475   -25847.60581054
  entropy T*S    EENTRO =        -0.00000000
  eigenvalues    EBANDS =     -7809.97629500
  atomic energy  EATOM  =     32433.67991533
  Solvation  Ediel_sol  =         0.00000000
  ---------------------------------------------------
  free energy    TOTEN  =     -1228.24252899 eV

  energy without entropy =    -1228.24252899  energy(sigma->0) =    -1228.24252899


--------------------------------------------------------------------------------------------------------




--------------------------------------- Iteration      1(   9)  ---------------------------------------


[...]
   -.967E+02 0.150E+02 -.741E+02   0.816E+02 -.447E+00 0.859E+02   0.152E+02 -.146E+02 -.118E+02   -.507E-04 0.342E-04 0.159E-04
   0.370E+03 0.716E+02 -.433E+02   -.374E+03 -.924E+02 0.552E+02   0.400E+01 0.208E+02 -.119E+02   0.448E-04 -.459E-04 0.132E-04
   -.975E+02 0.136E+02 -.734E+02   0.823E+02 0.966E+00 0.851E+02   0.153E+02 -.146E+02 -.118E+02   -.484E-04 0.327E-04 0.159E-04
   -.369E+03 0.713E+02 -.437E+02   0.373E+03 -.921E+02 0.556E+02   -.398E+01 0.208E+02 -.119E+02   -.428E-04 -.456E-04 0.128E-04
   0.369E+03 -.735E+02 0.446E+02   -.373E+03 0.942E+02 -.565E+02   0.387E+01 -.208E+02 0.120E+02   0.443E-04 0.427E-04 -.138E-04
   0.370E+03 -.717E+02 0.444E+02   -.374E+03 0.924E+02 -.564E+02   0.404E+01 -.208E+02 0.119E+02   0.455E-04 0.432E-04 -.134E-04
   -.945E+02 -.163E+02 0.736E+02   0.792E+02 0.174E+01 -.853E+02   0.153E+02 0.146E+02 0.118E+02   -.487E-04 -.355E-04 -.159E-04
   0.973E+02 0.139E+02 -.730E+02   -.821E+02 0.628E+00 0.847E+02   -.152E+02 -.146E+02 -.118E+02   0.493E-04 0.330E-04 0.170E-04
   0.950E+02 -.164E+02 0.738E+02   -.797E+02 0.187E+01 -.856E+02   -.153E+02 0.146E+02 0.118E+02   0.493E-04 -.350E-04 -.155E-04
   0.182E+03 0.303E+02 -.145E+02   -.184E+03 -.303E+02 0.154E+02   0.195E+01 -.405E-01 -.969E+00   0.278E-04 0.134E-03 -.171E-04
   0.183E+03 -.294E+02 0.158E+02   -.185E+03 0.293E+02 -.169E+02   0.199E+01 0.481E-01 0.103E+01   0.320E-04 -.135E-03 0.180E-04
   -.181E+03 0.305E+02 -.147E+02   0.183E+03 -.304E+02 0.156E+02   -.194E+01 -.472E-01 -.962E+00   -.267E-04 0.135E-03 -.175E-04
   -.183E+03 -.294E+02 0.152E+02   0.185E+03 0.293E+02 -.162E+02   -.196E+01 0.476E-01 0.100E+01   -.307E-04 -.135E-03 0.182E-04
   -.185E+03 -.309E+02 0.153E+02   0.187E+03 0.308E+02 -.163E+02   -.205E+01 0.427E-01 0.103E+01   -.314E-04 -.137E-03 0.179E-04
   0.180E+03 0.293E+02 -.144E+02   -.182E+03 -.293E+02 0.153E+02   0.189E+01 -.620E-01 -.943E+00   0.249E-04 0.136E-03 -.183E-04
   -.180E+03 0.293E+02 -.146E+02   0.182E+03 -.293E+02 0.156E+02   -.188E+01 -.632E-01 -.941E+00   -.255E-04 0.136E-03 -.177E-04
   0.185E+03 -.309E+02 0.154E+02   -.187E+03 0.308E+02 -.164E+02   0.204E+01 0.388E-01 0.102E+01   0.289E-04 -.137E-03 0.196E-04
   0.377E+03 0.276E+03 0.226E+03   -.389E+03 -.313E+03 -.265E+03   0.127E+02 0.368E+02 0.385E+02   0.672E-04 0.112E-03 0.581E-04
   -.816E+02 -.221E+02 -.215E+03   0.114E+03 0.528E+01 0.256E+03   -.327E+02 0.169E+02 -.401E+02   -.219E-04 0.848E-04 -.393E-04
   -.836E+02 0.235E+02 0.214E+03   0.117E+03 -.681E+01 -.253E+03   -.332E+02 -.167E+02 0.398E+02   -.179E-04 -.830E-04 0.385E-04
   0.823E+02 -.225E+02 -.216E+03   -.115E+03 0.574E+01 0.256E+03   0.327E+02 0.168E+02 -.401E+02   0.234E-04 0.838E-04 -.399E-04
   0.824E+02 0.228E+02 0.214E+03   -.115E+03 -.595E+01 -.254E+03   0.330E+02 -.168E+02 0.398E+02   0.179E-04 -.831E-04 0.381E-04
   -.380E+03 -.276E+03 -.226E+03   0.393E+03 0.313E+03 0.264E+03   -.129E+02 -.367E+02 -.385E+02   -.741E-04 -.113E-03 -.580E-04
   -.376E+03 0.277E+03 0.225E+03   0.389E+03 -.314E+03 -.264E+03   -.127E+02 0.368E+02 0.385E+02   -.649E-04 0.110E-03 0.557E-04
   -.380E+03 -.275E+03 -.226E+03   0.393E+03 0.312E+03 0.264E+03   -.130E+02 -.368E+02 -.383E+02   -.699E-04 -.107E-03 -.542E-04
   0.377E+03 0.276E+03 0.226E+03   -.390E+03 -.313E+03 -.264E+03   0.130E+02 0.368E+02 0.384E+02   0.644E-04 0.112E-03 0.547E-04
   0.805E+02 0.217E+02 0.214E+03   -.113E+03 -.480E+01 -.254E+03   0.329E+02 -.169E+02 0.399E+02   0.219E-04 -.838E-04 0.381E-04
   0.830E+02 -.221E+02 -.216E+03   -.116E+03 0.517E+01 0.256E+03   0.327E+02 0.169E+02 -.400E+02   0.251E-04 0.866E-04 -.396E-04
   -.808E+02 0.214E+02 0.215E+03   0.113E+03 -.449E+01 -.255E+03   -.327E+02 -.169E+02 0.400E+02   -.249E-04 -.830E-04 0.389E-04
   0.380E+03 -.275E+03 -.225E+03   -.393E+03 0.312E+03 0.263E+03   0.130E+02 -.369E+02 -.383E+02   0.741E-04 -.114E-03 -.584E-04
   -.379E+03 0.276E+03 0.225E+03   0.392E+03 -.313E+03 -.263E+03   -.132E+02 0.369E+02 0.382E+02   -.673E-04 0.115E-03 0.585E-04
   0.379E+03 -.275E+03 -.225E+03   -.392E+03 0.312E+03 0.264E+03   0.127E+02 -.367E+02 -.385E+02   0.721E-04 -.112E-03 -.570E-04
   -.821E+02 -.218E+02 -.216E+03   0.115E+03 0.485E+01 0.256E+03   -.326E+02 0.170E+02 -.401E+02   -.219E-04 0.853E-04 -.362E-04
 -----------------------------------------------------------------------------------------------
   0.668E-01 -.124E+00 0.267E+00   -.441E-12 0.114E-11 0.881E-12   -.760E-01 0.816E-01 -.294E+00   0.161E-04 -.428E-04 -.495E-06
 
 
 POSITION                                       TOTAL-FORCE (eV/Angst)
 -----------------------------------------------------------------------------------
     12.39121     30.63165     -1.39353         0.000715     -0.002951     -0.000107
     11.22906     30.24792      0.46914        -0.004290      0.003205      0.005243
     12.40892     25.05471      4.15710         0.000299     -0.005759      0.001763
      7.63264     14.41910      3.02396         0.001010     -0.004238      0.001951
      8.77726      9.66077      0.18341         0.001890      0.001467      0.001056
      2.12508     25.66449     -0.95294        -0.001284      0.002059     -0.001691
      8.79177     14.03776      4.88915        -0.002751      0.001473     -0.001585
      7.61348      9.28365      2.04625        -0.001920     -0.000239      0.003268
      4.55681     14.26682      1.62814         0.000299     -0.002063     -0.000350
      0.96384     25.28718      0.91166        -0.000419     -0.000646      0.001742
      2.11259     30.03659      3.74789        -0.000020      0.002253     -0.005031
      4.54562      9.45080      3.45005         0.000615     -0.002629      0.002654
     11.24832     25.42638      2.29113        -0.002844     -0.002449     -0.002269
      0.94780     30.41865      1.88633        -0.000732     -0.000179      0.002386
      5.70343      9.07414      5.31690        -0.001555     -0.003373      0.002560
      5.72338     14.64964     -0.23217         0.002259     -0.000300      0.003070
     10.24804      0.94261      0.59233        -0.002537      0.003422     -0.001658
     11.47848      1.47294      2.71795         0.003357     -0.005112      0.002653
     11.52540     22.21534      2.34710         0.005035      0.006185     -0.002737
      8.54389     17.24625      4.84123         0.005251     -0.004365     -0.005019
      8.50392      6.44979      0.23022        -0.000694      0.000823      0.001154
      3.09517     22.98721      1.22093         0.000629     -0.003523      0.003045
      9.77417     16.71110      2.71643         0.000651      0.001314      0.002009
      9.74478      6.98168      2.34906         0.002066     -0.003402      0.001698
      3.58584     16.94735     -0.53399        -0.004735      0.004846     -0.001530
      1.85899     22.45761     -0.90158        -0.002972      0.004325     -0.002155
      1.84850      1.26291      5.99789         0.002837     -0.003159     -0.001394
      4.80577      6.24458      3.50126         0.000065     -0.000198      0.002288
     10.28246     22.75198      4.46324         0.000847     -0.000724      0.004100
      3.08758      0.73178      3.87748         0.002041      0.002078     -0.004668
      3.57470      6.77394      5.62673        -0.002127     -0.004955      0.000820
      4.81925     17.47587      1.59018         0.000862     -0.002649     -0.002415
      9.81430      2.36046      0.51827        -0.001405     -0.001126     -0.005750
     11.01707      2.87860      2.60653         0.001851      0.006178     -0.000084
     11.06129     20.81037      2.45929        -0.002217     -0.003539     -0.001249
      9.00722     18.65104      4.72769        -0.000811      0.002672     -0.000941
      8.96735      5.04426      0.33991         0.001538     -0.002875      0.004423
      3.52295     21.56816      1.29709        -0.000416      0.000496      0.000078
     10.21070     18.12785      2.64087         0.000290      0.001620     -0.003462
     10.17359      5.56282      2.42611        -0.000155     -0.000335     -0.001594
      3.15613     18.36601     -0.60942        -0.000838     -0.001871     -0.002265
      2.31662     21.05114     -0.78963         0.002603     -0.003262     -0.002878
      2.30779      2.66934      5.88579         0.000844     -0.000993      0.001847
      4.34936      4.83771      3.61515        -0.002085     -0.002378     -0.001455
      9.85349     21.33365      4.54324        -0.001427     -0.001199      0.001066
      3.51428      2.15129      3.79938        -0.000309     -0.000715      0.000413
      3.14584      5.35511      5.70334        -0.000417     -0.001405      0.000186
      4.36112     18.88259      1.47793        -0.002515      0.000064      0.001178
      9.01444      2.33926      5.98481         0.005107     -0.004486      0.004327
     11.39107      3.80419      3.57412        -0.000142     -0.001821      0.000588
     11.43415     19.88306      1.49310         0.003075     -0.001768     -0.000974
      8.63828     20.02139     -0.83180        -0.001244      0.000246      0.000267
      8.58966      3.67581      5.89779        -0.001293      0.000901     -0.002429
      4.31709     21.14522      2.35645        -0.003254      0.003558     -0.002094
     11.00760     18.54711      1.58191        -0.001721     -0.002322      0.001003
     10.96899      5.14133      3.48522        -0.002050      0.003114      0.000549
      2.35736     18.34574      4.85685         0.002276     -0.001381      0.001754
      1.93676     19.68341      4.76838        -0.000932      0.000278      0.002168
      1.93701      4.03754      0.32754         0.000836      0.002160      0.001964
      4.72535      3.91239      2.64825        -0.000318     -0.001405      0.000064
      9.06160     21.35797     -0.92271        -0.000067      0.002504     -0.000580
      4.30786      2.57396      2.73924        -0.002575     -0.003428      0.001217
      2.35702      5.37543      0.23808         0.001408     -0.001123      0.001250
      4.73666     19.80739      2.44537         0.000494     -0.001328      0.002240
     11.49159     31.21886     -0.50190         0.001738     -0.000560      0.002623
     11.51843     24.45827      3.26272         0.000978      0.005991      0.001396
      8.53026     15.00773      3.91669        -0.001713     -0.004578      0.001287
      8.50683      8.69028      1.15261         0.002143      0.004109     -0.003069
      1.86088     24.69636      0.02030        -0.001126      0.003123     -0.004579
      4.82613     15.23893      0.66049         0.001231      0.001169      0.002513
      1.84490     31.00813      2.77901        -0.002021     -0.005078      0.007992
      4.80789      8.48295      4.42421         0.001965      0.005768     -0.002827
     10.20560      3.28269      1.51876        -0.000509     -0.005509      0.000452
     10.24667     20.40912      3.54587         0.002645      0.001932     -0.002927
      9.82004     19.05203      3.63976        -0.000844     -0.000415      0.003101
      9.78049      4.64035      1.42666        -0.001423      0.006581     -0.001400
      3.12842     20.64639      0.29758        -0.002377      0.000888      0.000005
      3.55012     19.28785      0.39021         0.001533     -0.005350      0.001454
      3.11885      3.07395      4.79780        -0.000863     -0.002570      0.000195
      3.53942      4.43290      4.70379         0.000116     -0.000429      0.001246
      0.53762     28.06960     -1.86960        -0.000804     -0.007385      0.002776
     12.81744     27.84553      1.38225         0.003442     -0.002566     -0.000706
      6.13455     11.85574      2.53667         0.002592     -0.002599     -0.004890
      7.20425     12.07765     -0.72480         0.005305     -0.003228     -0.003632
      5.34546      4.25368      1.81886        -0.000028     -0.000736      0.001651
     11.28926     17.81446      0.82555         0.000384     -0.000077      0.002973
     11.25372      5.87353      4.24083         0.000099      0.000334     -0.000096
      8.73250      1.60775      5.22747        -0.002015      0.001134      0.001922
      8.77731     22.09223     -0.16883        -0.000625     -0.002611     -0.000382
      8.01443     19.68309     -0.00407         0.002189      0.002334      0.000505
      1.31478     20.02472      3.94044         0.000441     -0.000886     -0.000182
      1.31548      3.69691      1.15614         0.002131      0.000645     -0.002772
     12.05908     20.22053      0.66571        -0.002356     -0.000332      0.001417
      2.07316      6.10669      0.99489        -0.000902      0.003014     -0.000423
      2.07279     17.61436      4.10045         0.000044     -0.001006      0.000384
      4.60194     21.87678      3.11248         0.002400      0.003040      0.003508
      5.35852     19.46620      3.27330         0.000569     -0.000182      0.002239
      7.96564      4.01560      5.07068         0.001535     -0.001428     -0.000333
     12.01380      3.46413      4.40188        -0.000083      0.000676      0.001378
      4.59385      1.84194      1.98399        -0.000214     -0.001426     -0.000105
      9.40338     14.53804     -0.73756         0.000245      0.002997     -0.000511
      3.93898      9.38937      2.55113        -0.000354      0.005058     -0.003730
      6.18131     14.63300      5.41023         0.000488     -0.003102      0.001151
      0.50675     24.86368      1.79893        -0.001095      0.004767     -0.006757
      2.72614     30.53783     -1.88022         0.000326     -0.003463      0.000996
      6.16317      9.09397     -0.32064         0.003282      0.003625     -0.002523
     12.84501     30.61403      4.24638         0.002445      0.000525      0.000788
     10.64192     25.36305      1.39210        -0.000805      0.002496     -0.001958
      0.48703     30.84427      1.00214        -0.001899     -0.000479     -0.000262
      7.17650     14.84309      2.13664        -0.002066      0.001041      0.001320
      9.38160      9.15756      5.81130         0.000788      0.000519     -0.002798
     10.62019     30.30397      1.36722         0.000326      0.004000     -0.002869
      7.15304      8.86049      2.93184        -0.002242      0.001097     -0.002312
      3.94686     14.32477      2.52512        -0.001893     -0.002426      0.003458
      2.72913     25.16075      4.67475        -0.000243      0.003368     -0.001264
     12.87223     25.07674     -1.48119         0.001969      0.001265     -0.003050
     12.65714     29.38355     -0.97500         0.001154     -0.004339     -0.000453
     11.93578     29.13786      0.16412         0.000901     -0.001168     -0.001130
     12.66317     26.30523      3.73937        -0.000732      0.001589     -0.004875
      7.36672     13.17119      3.44308        -0.002255     -0.001800      0.002613
      8.08039     10.77665      0.49098         0.001662     -0.000624     -0.003348
      1.42063     26.77691     -0.64985         0.002228      0.001924     -0.002262
      8.08578     12.92703      4.58405         0.001882     -0.000192     -0.000314
      7.35823     10.53475      1.63044         0.000591      0.002971     -0.003626
      5.25771     13.15368      1.32065        -0.002119      0.000007      0.001066
      0.70037     26.53489      0.49081         0.000270      0.000337     -0.004882
      1.41107     28.92375      3.44056         0.001502      0.001064      0.000778
      5.24929     10.56335      3.75426        -0.001983      0.000889     -0.002460
     11.94291     26.54387      2.59801        -0.000876      0.002590     -0.002198
      0.68796     29.16845      2.30222         0.000529     -0.003966      0.002109
      5.96764     10.32166      4.89622        -0.002062      0.000617     -0.003802
      5.98170     13.39879      0.18307        -0.002029      0.003596      0.001263
     11.01781      0.57730      1.72410        -0.001386      0.002529      0.002583
     11.05397     23.11456      3.33200        -0.002406      0.002095      0.001077
      9.00361     16.34868      3.84878         0.002264     -0.002621      0.000860
      8.97268      7.34666      1.21886         0.001804     -0.000235      0.001562
      2.32820     23.35370      0.08770         0.001436      0.000357      0.002314
      4.35764     16.58156      0.59607        -0.003119      0.000564     -0.002046
      2.31251      0.36756      5.00577         0.002052      0.003042     -0.000400
      4.33975      7.14060      4.49208        -0.001979     -0.003269      0.000976
      9.95428     -0.32286      6.25406         0.001394     -0.000637      0.004419
     12.21902      1.09554      3.62322        -0.000332      0.004637      0.001046
     12.27573     22.58925      1.44836        -0.003342     -0.002484     -0.002393
      7.80738     17.31399     -0.77856        -0.005716      0.001482      0.007182
      7.75163      6.38298      5.85620        -0.001214     -0.000700     -0.001110
      3.38748     23.80964      2.08402        -0.001419      0.003039     -0.004325
     10.06245     15.88697      1.85371        -0.000715     -0.000352      0.005492
     10.04096      7.80586      3.20906        -0.002345      0.002475     -0.000872
      3.28683     15.68105      5.13032        -0.000177     -0.000969      0.001263
      1.11073     22.39255      4.72177         0.003589     -0.001715      0.001889
      1.11159      1.32760      0.37668         0.000055      0.001799      0.004143
      5.54679      6.62244      2.59660         0.001309      0.000904     -0.002482
      9.99136     24.02102     -1.20386         0.000322      0.000536     -0.002613
      3.38662     -0.09350      3.01945        -0.001007      0.002415      0.001472
      3.28898      8.03910     -0.03487         0.000522      0.004628     -0.003186
      5.55789     17.09667      2.49622         0.000922      0.000343      0.000623
 -----------------------------------------------------------------------------------
    total drift:                               -0.009179     -0.042046     -0.026650


--------------------------------------------------------------------------------------------------------



  FREE ENERGIE OF THE ION-ELECTRON SYSTEM (eV)
  ---------------------------------------------------
  free  energy   TOTEN  =     -1162.08074511 eV

  energy  without entropy=    -1162.08074511  energy(sigma->0) =    -1162.08074511
 


--------------------------------------------------------------------------------------------------------


    POTLOK:  cpu time    0.1356: real time    0.1356


--------------------------------------------------------------------------------------------------------




--------------------------------------------------------------------------------------------------------


  
 reached required accuracy - stopping structural energy minimisation
 writing wavefunctions
     LOOP+:  cpu time  498.2724: real time  501.6464
    4ORBIT:  cpu time    0.0000: real time    0.0000

 total amount of memory used by VASP MPI-rank0   114322. kBytes
=======================================================================

   base      :      30000. kBytes
   nonlr-proj:       5746. kBytes
   fftplans  :       7836. kBytes
   grid      :      13725. kBytes
   one-center:        606. kBytes
   wavefun   :      56409. kBytes
 
  
  
 General timing and accounting informations for this job:
 ========================================================
  
                  Total CPU time used (sec):      578.392
                            User time (sec):      530.714
                          System time (sec):       47.678
                         Elapsed time (sec):      582.840
  
                   Maximum memory used (kb):      967860.
                   Average memory used (kb):           0.
  
                          Minor page faults:       401931
                          Major page faults:           10
                 Voluntary context switches:        11371
