       N       E                     dE             d eps       ncg     rms          rms(c)
DAV:   1     0.524560850571E+04    0.52456E+04   -0.28372E+05  9216   0.148E+03
DAV:   2    -0.419533741050E+03   -0.56651E+04   -0.54493E+04 12832   0.331E+02
DAV:   3    -0.126568176578E+04   -0.84615E+03   -0.83915E+03 10848   0.136E+02
DAV:   4    -0.129491142249E+04   -0.29230E+02   -0.29043E+02 12352   0.332E+01
DAV:   5    -0.129577430649E+04   -0.86288E+00   -0.86143E+00 13312   0.518E+00    0.849E+01
DAV:   6    -0.149307424055E+04   -0.19730E+03   -0.23517E+03 14720   0.917E+01    0.215E+02
DAV:   7    -0.140267686193E+04    0.90397E+02   -0.19309E+02 10880   0.327E+01    0.139E+02
DAV:   8    -0.115748442417E+04    0.24519E+03   -0.24316E+02 13120   0.102E+02    0.295E+01
DAV:   9    -0.117213364315E+04   -0.14649E+02   -0.14391E+02 12672   0.216E+01    0.370E+01
DAV:  10    -0.117344104765E+04   -0.13074E+01   -0.17383E+02 13504   0.207E+01    0.451E+01
DAV:  11    -0.118074985954E+04   -0.73088E+01   -0.23162E+02 13280   0.356E+01    0.520E+01
DAV:  12    -0.117230491058E+04    0.84449E+01   -0.70311E+01 12832   0.280E+01    0.377E+01
DAV:  13    -0.116608680121E+04    0.62181E+01   -0.36263E+01 12672   0.147E+01    0.215E+01
DAV:  14    -0.116609968978E+04   -0.12889E-01   -0.17800E+00 13248   0.546E+00    0.969E+00
DAV:  15    -0.116698932042E+04   -0.88963E+00   -0.51214E-01 12896   0.267E+00    0.754E+00
DAV:  16    -0.116742847885E+04   -0.43916E+00   -0.35603E-01 12672   0.252E+00    0.487E+00
DAV:  17    -0.116751212860E+04   -0.83650E-01   -0.30513E-01 13440   0.317E+00    0.317E+00
DAV:  18    -0.116751555606E+04   -0.34275E-02   -0.18624E-01 13408   0.258E+00    0.219E+00
DAV:  19    -0.116752950518E+04   -0.13949E-01   -0.12682E-01 13760   0.216E+00    0.147E+00
DAV:  20    -0.116757834537E+04   -0.48840E-01   -0.10982E-01 13600   0.179E+00    0.982E-01
DAV:  21    -0.116762481148E+04   -0.46466E-01   -0.95495E-02 13056   0.132E+00    0.122E+00
DAV:  22    -0.116759883443E+04    0.25977E-01   -0.58769E-02 11360   0.504E-01    0.798E-01
DAV:  23    -0.116763022340E+04   -0.31389E-01   -0.61446E-03 12192   0.332E-01    0.625E-01
DAV:  24    -0.116772285468E+04   -0.92631E-01   -0.69167E-02 13728   0.114E+00    0.181E+00
DAV:  25    -0.116773317039E+04   -0.10316E-01   -0.21456E-02 11104   0.333E-01    0.111E+00
DAV:  26    -0.116777389409E+04   -0.40724E-01   -0.57969E-03 11648   0.301E-01    0.567E-01
DAV:  27    -0.116783585230E+04   -0.61958E-01   -0.58759E-03 12576   0.331E-01    0.276E-01
DAV:  28    -0.116792504276E+04   -0.89190E-01   -0.81726E-03 12800   0.392E-01    0.300E-01
DAV:  29    -0.116795408272E+04   -0.29040E-01   -0.49585E-03 12224   0.182E-01    0.355E-01
DAV:  30    -0.116799193732E+04   -0.37855E-01   -0.12300E-03 12928   0.166E-01    0.356E-01
DAV:  31    -0.116805800301E+04   -0.66066E-01   -0.31286E-03 11456   0.155E-01    0.347E-01
DAV:  32    -0.116808060263E+04   -0.22600E-01   -0.12316E-03 12352   0.103E-01    0.296E-01
DAV:  33    -0.116808903597E+04   -0.84333E-02   -0.21251E-04 12544   0.857E-02    0.255E-01
DAV:  34    -0.116809793502E+04   -0.88991E-02   -0.51913E-04 13632   0.131E-01    0.188E-01
DAV:  35    -0.116810574942E+04   -0.78144E-02   -0.64504E-04 13248   0.117E-01    0.979E-02
DAV:  36    -0.116810963816E+04   -0.38887E-02   -0.46377E-04 13184   0.791E-02    0.371E-02
DAV:  37    -0.116811124253E+04   -0.16044E-02   -0.18259E-04 13408   0.537E-02    0.731E-02
DAV:  38    -0.116811189319E+04   -0.65066E-03   -0.89051E-05 12736   0.238E-02    0.905E-02
DAV:  39    -0.116811238628E+04   -0.49308E-03   -0.27385E-05 12736   0.216E-02    0.615E-02
DAV:  40    -0.116811325686E+04   -0.87059E-03   -0.50413E-05 12480   0.232E-02    0.322E-02
DAV:  41    -0.116811360888E+04   -0.35202E-03   -0.18435E-05 12576   0.122E-02    0.212E-02
DAV:  42    -0.116811379603E+04   -0.18715E-03   -0.71005E-06 10432   0.831E-03    0.122E-02
DAV:  43    -0.116811401024E+04   -0.21421E-03   -0.99038E-06 10048   0.720E-03    0.457E-03
DAV:  44    -0.116811409941E+04   -0.89177E-04   -0.45197E-06 10016   0.351E-03    0.291E-03
DAV:  45    -0.116811413475E+04   -0.35336E-04   -0.12337E-06  7936   0.232E-03    0.213E-03
DAV:  46    -0.116811416546E+04   -0.30711E-04   -0.21755E-06  8992   0.302E-03    0.355E-03
DAV:  47    -0.116811417479E+04   -0.93332E-05   -0.45516E-07  7424   0.135E-03    0.379E-03
DAV:  48    -0.116811418179E+04   -0.69985E-05   -0.28596E-07  7264   0.116E-03    0.275E-03
DAV:  49    -0.116811418616E+04   -0.43713E-05   -0.16913E-07  7200   0.139E-03    0.119E-03
DAV:  50    -0.116811418952E+04   -0.33544E-05   -0.16686E-07  7232   0.993E-04    0.615E-04
DAV:  51    -0.116811419146E+04   -0.19408E-05   -0.88208E-08  6720   0.591E-04    0.568E-04
DAV:  52    -0.116811419292E+04   -0.14614E-05   -0.50466E-08  6784   0.442E-04    0.335E-04
DAV:  53    -0.116811419438E+04   -0.14590E-05   -0.39406E-08  6784   0.297E-04    0.266E-04
DAV:  54    -0.116811419562E+04   -0.12405E-05   -0.29456E-08  6624   0.266E-04    0.252E-04
DAV:  55    -0.116811419663E+04   -0.10086E-05   -0.25753E-08  6592   0.243E-04    0.188E-04
DAV:  56    -0.116811419719E+04   -0.55935E-06   -0.16185E-08  6368   0.220E-04
   1 F= -.11792091E+04 E0= -.11792052E+04  d E =-.117921E+04  mag=    -0.0004
