 vasp.6.0.8 29Jun18 (build Mar 14 2019 11:44:20) complex                        
  
 executed on             LinuxIFC date 2020.12.21  13:28:27
 running  128 mpi-ranks, with    1 threads/rank
 distrk:  each k-point on  128 cores,    1 groups
 distr:  one band on NCORES_PER_BAND=   4 cores,   32 groups


--------------------------------------------------------------------------------------------------------


 INCAR:
 POTCAR:    PAW_PBE C 08Apr2002                   
 POTCAR:    PAW_PBE Co 02Aug2007                  
 POTCAR:    PAW_PBE H 15Jun2001                   
 POTCAR:    PAW_PBE N 08Apr2002                   
 POTCAR:    PAW_PBE O 08Apr2002                   
 POTCAR:    PAW_PBE C 08Apr2002                   
   VRHFIN =C: s2p2                                                              
   LEXCH  = PE                                                                  
   EATOM  =   147.1560 eV,   10.8157 Ry                                         
                                                                                
   TITEL  = PAW_PBE C 08Apr2002                                                 
   LULTRA =        F    use ultrasoft PP ?                                      
   IUNSCR =        1    unscreen: 0-lin 1-nonlin 2-no                           
   RPACOR =    1.200    partial core radius                                     
   POMASS =   12.011; ZVAL   =    4.000    mass and valenz                      
   RCORE  =    1.500    outmost cutoff radius                                   
   RWIGS  =    1.630; RWIGS  =    0.863    wigner-seitz radius (au A)           
   ENMAX  =  400.000; ENMIN  =  300.000 eV                                      
   ICORE  =        2    local potential                                         
   LCOR   =        T    correct aug charges                                     
   LPAW   =        T    paw PP                                                  
   EAUG   =  644.873                                                            
   DEXC   =    0.000                                                            
   RMAX   =    1.529    core radius for proj-oper                               
   RAUG   =    1.300    factor for augmentation sphere                          
   RDEP   =    1.501    radius for radial grids                                 
   RDEPT  =    1.300    core radius for aug-charge                              
                                                                                
   Atomic configuration                                                         
    4 entries                                                                   
     n  l   j            E        occ.                                          
     1  0  0.50      -273.3789   2.0000                                         
     2  0  0.50       -13.7508   2.0000                                         
     2  1  0.50        -5.2854   2.0000                                         
     3  2  1.50        -5.4423   0.0000                                         
   Description                                                                  
     l       E           TYP  RCUT    TYP  RCUT                                 
     0    -13.7508458     23  1.200                                             
     0     -8.2022199     23  1.200                                             
     1     -5.2854383     23  1.500                                             
     1     34.0145650     23  1.500                                             
     2     -5.4423304      7  1.500                                             
  local pseudopotential read in
  partial core-charges read in
  partial kinetic energy density read in
  atomic valenz-charges read in
  non local Contribution for L=           0  read in
    real space projection operators read in
  non local Contribution for L=           0  read in
    real space projection operators read in
  non local Contribution for L=           1  read in
    real space projection operators read in
  non local Contribution for L=           1  read in
    real space projection operators read in
    PAW grid and wavefunctions read in
 
   number of l-projection  operators is LMAX  =           4
   number of lm-projection operators is LMMAX =           8
 
 POTCAR:    PAW_PBE Co 02Aug2007                  
   VRHFIN =Co: d8 s1                                                            
   LEXCH  = PE                                                                  
   EATOM  =   813.3670 eV,   59.7808 Ry                                         
                                                                                
   TITEL  = PAW_PBE Co 02Aug2007                                                
   LULTRA =        F    use ultrasoft PP ?                                      
   IUNSCR =        1    unscreen: 0-lin 1-nonlin 2-no                           
   RPACOR =    2.000    partial core radius                                     
   POMASS =   58.933; ZVAL   =    9.000    mass and valenz                      
   RCORE  =    2.300    outmost cutoff radius                                   
   RWIGS  =    2.460; RWIGS  =    1.302    wigner-seitz radius (au A)           
   ENMAX  =  267.968; ENMIN  =  200.976 eV                                      
   RCLOC  =    1.203    cutoff for local pot                                    
   LCOR   =        T    correct aug charges                                     
   LPAW   =        T    paw PP                                                  
   EAUG   =  477.818                                                            
   DEXC   =    0.000                                                            
   RMAX   =    2.360    core radius for proj-oper                               
   RAUG   =    1.300    factor for augmentation sphere                          
   RDEP   =    2.393    radius for radial grids                                 
   RDEPT  =    1.864    core radius for aug-charge                              
                                                                                
   Atomic configuration                                                         
    9 entries                                                                   
     n  l   j            E        occ.                                          
     1  0  0.50     -7587.6674   2.0000                                         
     2  0  0.50      -893.6084   2.0000                                         
     2  1  1.50      -764.5805   6.0000                                         
     3  0  0.50       -97.5973   2.0000                                         
     3  1  1.50       -60.9648   6.0000                                         
     3  2  2.50        -4.2382   8.0000                                         
     4  0  0.50        -4.3746   1.0000                                         
     4  1  1.50        -4.0817   0.0000                                         
     4  3  2.50        -1.3606   0.0000                                         
   Description                                                                  
     l       E           TYP  RCUT    TYP  RCUT                                 
     2     -4.2382362     23  2.300                                             
     2     -5.5988188     23  2.300                                             
     0     -4.3745797     23  2.300                                             
     0      5.7660125     23  2.300                                             
     1     -2.7211652     23  2.300                                             
     1     16.9860234     23  2.300                                             
  local pseudopotential read in
  partial core-charges read in
  partial kinetic energy density read in
  atomic valenz-charges read in
  non local Contribution for L=           2  read in
    real space projection operators read in
  non local Contribution for L=           2  read in
    real space projection operators read in
  non local Contribution for L=           0  read in
    real space projection operators read in
  non local Contribution for L=           0  read in
    real space projection operators read in
  non local Contribution for L=           1  read in
    real space projection operators read in
  non local Contribution for L=           1  read in
    real space projection operators read in
    PAW grid and wavefunctions read in
 
   number of l-projection  operators is LMAX  =           6
   number of lm-projection operators is LMMAX =          18
 
 POTCAR:    PAW_PBE H 15Jun2001                   
   VRHFIN =H: ultrasoft test                                                    
   LEXCH  = PE                                                                  
   EATOM  =    12.4884 eV,    0.9179 Ry                                         
                                                                                
   TITEL  = PAW_PBE H 15Jun2001                                                 
   LULTRA =        F    use ultrasoft PP ?                                      
   IUNSCR =        0    unscreen: 0-lin 1-nonlin 2-no                           
   RPACOR =    0.000    partial core radius                                     
   POMASS =    1.000; ZVAL   =    1.000    mass and valenz                      
   RCORE  =    1.100    outmost cutoff radius                                   
   RWIGS  =    0.700; RWIGS  =    0.370    wigner-seitz radius (au A)           
   ENMAX  =  250.000; ENMIN  =  200.000 eV                                      
   RCLOC  =    0.701    cutoff for local pot                                    
   LCOR   =        T    correct aug charges                                     
   LPAW   =        T    paw PP                                                  
   EAUG   =  400.000                                                            
   RMAX   =    1.123    core radius for proj-oper                               
   RAUG   =    1.200    factor for augmentation sphere                          
   RDEP   =    1.112    radius for radial grids                                 
   RDEPT  =    0.926    core radius for aug-charge                              
                                                                                
   Atomic configuration                                                         
    2 entries                                                                   
     n  l   j            E        occ.                                          
     1  0  0.50        -6.4927   1.0000                                         
     2  1  0.50        -3.4015   0.0000                                         
   Description                                                                  
     l       E           TYP  RCUT    TYP  RCUT                                 
     0     -6.4927494     23  1.100                                             
     0      6.8029130     23  1.100                                             
     1     -4.0817478     23  1.100                                             
  local pseudopotential read in
  atomic valenz-charges read in
  non local Contribution for L=           0  read in
    real space projection operators read in
  non local Contribution for L=           0  read in
    real space projection operators read in
  non local Contribution for L=           1  read in
    real space projection operators read in
    PAW grid and wavefunctions read in
 
   number of l-projection  operators is LMAX  =           3
   number of lm-projection operators is LMMAX =           5
 
 POTCAR:    PAW_PBE N 08Apr2002                   
   VRHFIN =N: s2p3                                                              
   LEXCH  = PE                                                                  
   EATOM  =   264.5486 eV,   19.4438 Ry                                         
                                                                                
   TITEL  = PAW_PBE N 08Apr2002                                                 
   LULTRA =        F    use ultrasoft PP ?                                      
   IUNSCR =        1    unscreen: 0-lin 1-nonlin 2-no                           
   RPACOR =    1.200    partial core radius                                     
   POMASS =   14.001; ZVAL   =    5.000    mass and valenz                      
   RCORE  =    1.500    outmost cutoff radius                                   
   RWIGS  =    1.400; RWIGS  =    0.741    wigner-seitz radius (au A)           
   ENMAX  =  400.000; ENMIN  =  300.000 eV                                      
   ICORE  =        2    local potential                                         
   LCOR   =        T    correct aug charges                                     
   LPAW   =        T    paw PP                                                  
   EAUG   =  627.112                                                            
   DEXC   =    0.000                                                            
   RMAX   =    1.529    core radius for proj-oper                               
   RAUG   =    1.300    factor for augmentation sphere                          
   RDEP   =    1.514    radius for radial grids                                 
   RDEPT  =    1.338    core radius for aug-charge                              
                                                                                
   Atomic configuration                                                         
    4 entries                                                                   
     n  l   j            E        occ.                                          
     1  0  0.50      -384.7179   2.0000                                         
     2  0  0.50       -18.5828   2.0000                                         
     2  1  0.50        -7.0898   3.0000                                         
     3  2  1.50        -6.8029   0.0000                                         
   Description                                                                  
     l       E           TYP  RCUT    TYP  RCUT                                 
     0    -18.5828119     23  1.200                                             
     0    -13.5018863     23  1.200                                             
     1     -7.0897853     23  1.500                                             
     1      9.5240782     23  1.500                                             
     2     -6.8029130      7  1.500                                             
  local pseudopotential read in
  partial core-charges read in
  partial kinetic energy density read in
  atomic valenz-charges read in
  non local Contribution for L=           0  read in
    real space projection operators read in
  non local Contribution for L=           0  read in
    real space projection operators read in
  non local Contribution for L=           1  read in
    real space projection operators read in
  non local Contribution for L=           1  read in
    real space projection operators read in
    PAW grid and wavefunctions read in
 
   number of l-projection  operators is LMAX  =           4
   number of lm-projection operators is LMMAX =           8
 
 POTCAR:    PAW_PBE O 08Apr2002                   
   VRHFIN =O: s2p4                                                              
   LEXCH  = PE                                                                  
   EATOM  =   432.3788 eV,   31.7789 Ry                                         
                                                                                
   TITEL  = PAW_PBE O 08Apr2002                                                 
   LULTRA =        F    use ultrasoft PP ?                                      
   IUNSCR =        1    unscreen: 0-lin 1-nonlin 2-no                           
   RPACOR =    1.200    partial core radius                                     
   POMASS =   16.000; ZVAL   =    6.000    mass and valenz                      
   RCORE  =    1.520    outmost cutoff radius                                   
   RWIGS  =    1.550; RWIGS  =    0.820    wigner-seitz radius (au A)           
   ENMAX  =  400.000; ENMIN  =  300.000 eV                                      
   ICORE  =        2    local potential                                         
   LCOR   =        T    correct aug charges                                     
   LPAW   =        T    paw PP                                                  
   EAUG   =  605.392                                                            
   DEXC   =    0.000                                                            
   RMAX   =    1.553    core radius for proj-oper                               
   RAUG   =    1.300    factor for augmentation sphere                          
   RDEP   =    1.550    radius for radial grids                                 
   RDEPT  =    1.329    core radius for aug-charge                              
                                                                                
   Atomic configuration                                                         
    4 entries                                                                   
     n  l   j            E        occ.                                          
     1  0  0.50      -514.6923   2.0000                                         
     2  0  0.50       -23.9615   2.0000                                         
     2  1  0.50        -9.0305   4.0000                                         
     3  2  1.50        -9.5241   0.0000                                         
   Description                                                                  
     l       E           TYP  RCUT    TYP  RCUT                                 
     0    -23.9615318     23  1.200                                             
     0     -9.5240782     23  1.200                                             
     1     -9.0304911     23  1.520                                             
     1      8.1634956     23  1.520                                             
     2     -9.5240782      7  1.500                                             
  local pseudopotential read in
  partial core-charges read in
  partial kinetic energy density read in
  kinetic energy density of atom read in
  atomic valenz-charges read in
  non local Contribution for L=           0  read in
    real space projection operators read in
  non local Contribution for L=           0  read in
    real space projection operators read in
  non local Contribution for L=           1  read in
    real space projection operators read in
  non local Contribution for L=           1  read in
    real space projection operators read in
    PAW grid and wavefunctions read in
 
   number of l-projection  operators is LMAX  =           4
   number of lm-projection operators is LMMAX =           8
 
 Optimization of the real space projectors (new method)

 maximal supplied QI-value         = 25.13
 optimisation between [QCUT,QGAM] = [ 12.32, 24.88] = [ 42.47,173.37] Ry 
 Optimized for a Real-space Cutoff    1.06 Angstroem

   l    n(q)    QCUT    max X(q) W(low)/X(q) W(high)/X(q)  e(spline) 
   0      8    12.315   115.676    0.34E-03    0.18E-03    0.23E-06
   0      8    12.315    87.132    0.34E-03    0.18E-03    0.22E-06
   1      7    12.315     4.429    0.45E-03    0.12E-03    0.18E-06
   1      7    12.315     2.733    0.35E-03    0.97E-04    0.15E-06
 Optimization of the real space projectors (new method)

 maximal supplied QI-value         = 16.25
 optimisation between [QCUT,QGAM] = [ 12.51, 25.03] = [ 43.85,175.40] Ry 
 Optimized for a Real-space Cutoff    1.31 Angstroem

   l    n(q)    QCUT    max X(q) W(low)/X(q) W(high)/X(q)  e(spline) 
   2      9    12.514    65.824    0.30E-03    0.46E-03    0.43E-06
   2      9    12.514    61.429    0.31E-03    0.46E-03    0.44E-06
   0     10    12.514    56.174    0.90E-04    0.33E-03    0.30E-06
   0     10    12.514    31.263    0.81E-04    0.30E-03    0.28E-06
   1      9    12.514    19.828    0.38E-03    0.65E-04    0.24E-06
   1      9    12.514    15.139    0.32E-03    0.60E-04    0.20E-06
 Optimization of the real space projectors (new method)

 maximal supplied QI-value         = 34.20
 optimisation between [QCUT,QGAM] = [ 12.31, 24.97] = [ 42.46,174.58] Ry 
 Optimized for a Real-space Cutoff    1.00 Angstroem

   l    n(q)    QCUT    max X(q) W(low)/X(q) W(high)/X(q)  e(spline) 
   0      7    12.313    19.460    0.14E-03    0.42E-03    0.16E-06
   0      7    12.313    12.209    0.12E-03    0.40E-03    0.16E-06
   1      7    12.313     4.655    0.33E-03    0.59E-03    0.89E-07
 Optimization of the real space projectors (new method)

 maximal supplied QI-value         = 25.13
 optimisation between [QCUT,QGAM] = [ 12.32, 24.88] = [ 42.47,173.37] Ry 
 Optimized for a Real-space Cutoff    1.20 Angstroem

   l    n(q)    QCUT    max X(q) W(low)/X(q) W(high)/X(q)  e(spline) 
   0      9    12.315    79.467    0.14E-03    0.22E-04    0.37E-06
   0      9    12.315    66.151    0.14E-03    0.23E-04    0.36E-06
   1      8    12.315    22.077    0.30E-03    0.54E-03    0.45E-06
   1      8    12.315    15.894    0.30E-03    0.55E-03    0.45E-06
 Optimization of the real space projectors (new method)

 maximal supplied QI-value         = 24.76
 optimisation between [QCUT,QGAM] = [ 12.38, 25.00] = [ 42.90,175.06] Ry 
 Optimized for a Real-space Cutoff    1.13 Angstroem

   l    n(q)    QCUT    max X(q) W(low)/X(q) W(high)/X(q)  e(spline) 
   0      8    12.378    20.381    0.16E-03    0.54E-05    0.27E-06
   0      8    12.378    15.268    0.17E-03    0.61E-05    0.29E-06
   1      8    12.378     5.964    0.38E-03    0.23E-03    0.28E-06
   1      8    12.378     5.382    0.33E-03    0.20E-03    0.25E-06
  PAW_PBE C 08Apr2002                   :
 energy of atom  1       EATOM= -147.1560
 kinetic energy error for atom=    0.0057 (will be added to EATOM!!)
  PAW_PBE Co 02Aug2007                  :
 energy of atom  2       EATOM= -813.3670
 kinetic energy error for atom=    0.0018 (will be added to EATOM!!)
  PAW_PBE H 15Jun2001                   :
 energy of atom  3       EATOM=  -12.4884
 kinetic energy error for atom=    0.0004 (will be added to EATOM!!)
  PAW_PBE N 08Apr2002                   :
 energy of atom  4       EATOM= -264.5486
 kinetic energy error for atom=    0.0103 (will be added to EATOM!!)
  PAW_PBE O 08Apr2002                   :
 energy of atom  5       EATOM= -432.3788
 kinetic energy error for atom=    0.0168 (will be added to EATOM!!)
 
 
 POSCAR: CoH_5	
  positions in direct lattice
  velocities in cartesian coordinates
 exchange correlation table for  LEXCH =        8
   RHO(1)=    0.500       N(1)  =     2000
   RHO(2)=  100.500       N(2)  =     4000
 


--------------------------------------------------------------------------------------------------------


 ion  position               nearest neighbor table
   1  0.866  0.963  0.132- 107 1.09 117 1.35  65 1.40
   2  0.936  0.976  0.422- 112 1.08 118 1.35  65 1.40
   3  0.866  0.817  0.921- 116 1.09 119 1.35  66 1.40
   4  0.634  0.463  0.631- 110 1.09 120 1.35  67 1.40
   5  0.563  0.304  0.130- 111 1.08 121 1.35  68 1.40
   6  0.063  0.804  0.133- 115 1.08 122 1.35  69 1.40
   7  0.564  0.476  0.920- 101 1.08 123 1.35  67 1.40
   8  0.633  0.317  0.421- 113 1.09 124 1.35  68 1.40
   9  0.436  0.476  0.419- 114 1.08 125 1.35  70 1.40
  10  0.134  0.817  0.423- 104 1.09 126 1.35  69 1.40
  11  0.064  0.976  0.922- 105 1.08 127 1.35  71 1.40
  12  0.437  0.304  0.631- 102 1.09 128 1.35  72 1.40
  13  0.937  0.804  0.633- 108 1.08 129 1.35  66 1.40
  14  0.134  0.963  0.633- 109 1.09 130 1.35  71 1.40
  15  0.366  0.317  0.920- 106 1.09 131 1.35  72 1.40
  16  0.366  0.464  0.129- 103 1.09 132 1.35  70 1.40
  17  0.791  0.038  0.457- 141 1.23 133 1.42  33 1.48
  18  0.854  0.071  0.089- 142 1.23 133 1.42  34 1.48
  19  0.855  0.709  0.966- 143 1.23 134 1.42  35 1.48
  20  0.646  0.571  0.587- 144 1.23 135 1.42  36 1.48
  21  0.644  0.209  0.465- 145 1.23 136 1.42  37 1.48
  22  0.208  0.742  0.098- 146 1.23 137 1.42  38 1.48
  23  0.709  0.538  0.956- 147 1.23 135 1.42  39 1.48
  24  0.707  0.242  0.096- 148 1.23 136 1.42  40 1.48
  25  0.291  0.538  0.455- 149 1.23 138 1.42  41 1.48
  26  0.145  0.709  0.467- 150 1.23 137 1.42  42 1.48
  27  0.146  0.071  0.588- 151 1.23 139 1.42  43 1.48
  28  0.355  0.209  0.966- 152 1.23 140 1.42  44 1.48
  29  0.792  0.742  0.597- 153 1.23 134 1.42  45 1.48
  30  0.209  0.038  0.957- 154 1.23 139 1.42  46 1.48
  31  0.292  0.242  0.596- 155 1.23 140 1.42  47 1.48
  32  0.354  0.571  0.087- 156 1.23 138 1.42  48 1.48
  33  0.753  0.082  0.454-  49 1.39  73 1.42  17 1.48
  34  0.816  0.115  0.096-  50 1.39  73 1.42  18 1.48
  35  0.818  0.665  0.959-  51 1.39  74 1.42  19 1.48
  36  0.683  0.615  0.595-  52 1.39  75 1.42  20 1.48
  37  0.682  0.165  0.458-  53 1.39  76 1.42  21 1.48
  38  0.246  0.698  0.100-  54 1.39  77 1.42  22 1.48
  39  0.747  0.582  0.954-  55 1.39  75 1.42  23 1.48
  40  0.745  0.198  0.099-  56 1.39  76 1.42  24 1.48
  41  0.254  0.582  0.453-  57 1.39  78 1.42  25 1.48
  42  0.182  0.665  0.459-  58 1.39  77 1.42  26 1.48
  43  0.183  0.115  0.595-  59 1.39  79 1.42  27 1.48
  44  0.318  0.165  0.959-  60 1.39  80 1.42  28 1.48
  45  0.755  0.698  0.599-  61 1.39  74 1.42  29 1.48
  46  0.246  0.082  0.955-  62 1.39  79 1.42  30 1.48
  47  0.254  0.198  0.599-  63 1.39  80 1.42  31 1.48
  48  0.317  0.615  0.094-  64 1.39  78 1.42  32 1.48
  49  0.704  0.087  0.628-  88 1.09  33 1.39  53 1.40
  50  0.830  0.152  0.924-  99 1.09  34 1.39  56 1.40
  51  0.831  0.628  0.131-  93 1.09  35 1.39  55 1.40
  52  0.670  0.652  0.422-  90 1.09  36 1.39  61 1.40
  53  0.668  0.128  0.630-  98 1.09  37 1.39  49 1.40
  54  0.295  0.693  0.925-  96 1.09  38 1.39  64 1.40
  55  0.796  0.587  0.129-  86 1.09  39 1.39  51 1.40
  56  0.794  0.193  0.926-  87 1.09  40 1.39  50 1.40
  57  0.205  0.587  0.628-  95 1.09  41 1.39  58 1.40
  58  0.169  0.628  0.631-  91 1.09  42 1.39  57 1.40
  59  0.169  0.152  0.423-  92 1.09  43 1.39  63 1.40
  60  0.331  0.129  0.131-  85 1.09  44 1.39  62 1.40
  61  0.705  0.693  0.425-  89 1.09  45 1.39  52 1.40
  62  0.296  0.087  0.129- 100 1.09  46 1.39  60 1.40
  63  0.205  0.193  0.424-  94 1.09  47 1.39  59 1.40
  64  0.330  0.652  0.923-  97 1.09  48 1.39  54 1.40
  65  0.877  0.994  0.274-   2 1.40   1 1.40 133 1.42
  66  0.878  0.786  0.780-  13 1.40   3 1.40 134 1.42
  67  0.623  0.494  0.773-   7 1.40   4 1.40 135 1.42
  68  0.621  0.286  0.279-   5 1.40   8 1.40 136 1.42
  69  0.122  0.786  0.281-   6 1.40  10 1.40 137 1.42
  70  0.377  0.494  0.271-   9 1.40  16 1.40 138 1.42
  71  0.122  0.994  0.774-  11 1.40  14 1.40 139 1.42
  72  0.378  0.286  0.779-  12 1.40  15 1.40 140 1.42
  73  0.767  0.119  0.276-  33 1.42  34 1.42  76 1.43
  74  0.769  0.661  0.778-  45 1.42  35 1.42  75 1.43
  75  0.733  0.619  0.775-  39 1.42  36 1.42  74 1.43
  76  0.731  0.161  0.278-  40 1.42  37 1.42  73 1.43
  77  0.231  0.661  0.278-  38 1.42  42 1.42  78 1.43
  78  0.268  0.619  0.275-  41 1.42  48 1.42  77 1.43
  79  0.232  0.119  0.776-  46 1.42  43 1.42  80 1.43
  80  0.268  0.161  0.778-  47 1.42  44 1.42  79 1.43
  81  0.971  0.890  0.027- 117 1.95 119 1.95 122 1.96 127 1.96
  82  0.029  0.890  0.527- 130 1.95 126 1.95 129 1.96 118 1.96
  83  0.529  0.390  0.525- 120 1.95 124 1.95 128 1.96 125 1.96
  84  0.471  0.390  0.024- 132 1.95 131 1.95 121 1.96 123 1.96
  85  0.369  0.133  0.268-  60 1.09
  86  0.806  0.558  0.263-  55 1.09
  87  0.804  0.222  0.791-  56 1.09
  88  0.694  0.058  0.763-  49 1.09
  89  0.696  0.722  0.290-  61 1.09
  90  0.632  0.647  0.285-  52 1.09
  91  0.131  0.632  0.768-  58 1.09
  92  0.131  0.147  0.286-  59 1.09
  93  0.870  0.633  0.268-  51 1.09
  94  0.195  0.222  0.289-  63 1.09
  95  0.195  0.558  0.762-  57 1.09
  96  0.305  0.723  0.791-  54 1.09
  97  0.368  0.648  0.786-  64 1.09
  98  0.630  0.133  0.767-  53 1.09
  99  0.868  0.147  0.787-  50 1.09
 100  0.305  0.058  0.264-  62 1.09
 101  0.538  0.489  0.056-   7 1.08
 102  0.463  0.291  0.495-  12 1.09
 103  0.328  0.466  0.985-  16 1.09
 104  0.172  0.815  0.567-  10 1.09
 105  0.038  0.989  0.058-  11 1.08
 106  0.328  0.315  0.063-  15 1.09
 107  0.827  0.965  0.988-   1 1.09
 108  0.963  0.791  0.497-  13 1.08
 109  0.172  0.965  0.489-  14 1.09
 110  0.672  0.465  0.487-   4 1.09
 111  0.537  0.291  0.994-   5 1.08
 112  0.962  0.989  0.559-   2 1.08
 113  0.672  0.315  0.565-   8 1.09
 114  0.462  0.489  0.556-   9 1.08
 115  0.037  0.791  0.997-   6 1.08
 116  0.828  0.815  0.065-   3 1.09
 117  0.915  0.929  0.195-   1 1.35 118 1.37  81 1.95
 118  0.958  0.936  0.371-   2 1.35 117 1.37  82 1.96
 119  0.915  0.852  0.858-   3 1.35 129 1.37  81 1.95
 120  0.585  0.429  0.693-   4 1.35 123 1.37  83 1.95
 121  0.541  0.344  0.180-   5 1.35 124 1.37  84 1.96
 122  0.042  0.844  0.183-   6 1.35 126 1.37  81 1.96
 123  0.542  0.437  0.869-   7 1.35 120 1.37  84 1.96
 124  0.585  0.352  0.357-   8 1.35 121 1.37  83 1.95
 125  0.458  0.437  0.369-   9 1.35 132 1.37  83 1.96
 126  0.085  0.852  0.359-  10 1.35 122 1.37  82 1.95
 127  0.042  0.937  0.871-  11 1.35 130 1.37  81 1.96
 128  0.458  0.344  0.680-  12 1.35 131 1.37  83 1.96
 129  0.959  0.844  0.682-  13 1.35 119 1.37  82 1.96
 130  0.085  0.929  0.695-  14 1.35 127 1.37  82 1.95
 131  0.415  0.352  0.856-  15 1.35 128 1.37  84 1.95
 132  0.415  0.429  0.192-  16 1.35 125 1.37  84 1.95
 133  0.838  0.035  0.272-  18 1.42  17 1.42  65 1.42
 134  0.840  0.745  0.783-  19 1.42  29 1.42  66 1.42
 135  0.661  0.535  0.770-  20 1.42  23 1.42  67 1.42
 136  0.660  0.245  0.282-  21 1.42  24 1.42  68 1.42
 137  0.160  0.745  0.284-  26 1.42  22 1.42  69 1.42
 138  0.339  0.536  0.269-  32 1.42  25 1.42  70 1.42
 139  0.161  0.035  0.771-  27 1.42  30 1.42  71 1.42
 140  0.340  0.245  0.782-  28 1.42  31 1.42  72 1.42
 141  0.781  0.005  0.610-  17 1.23
 142  0.896  0.066  0.934-  18 1.23
 143  0.898  0.714  0.121-  19 1.23
 144  0.604  0.566  0.432-  20 1.23
 145  0.602  0.214  0.619-  21 1.23
 146  0.217  0.775  0.945-  22 1.23
 147  0.719  0.505  0.110-  23 1.23
 148  0.717  0.274  0.942-  24 1.23
 149  0.282  0.505  0.608-  25 1.23
 150  0.103  0.714  0.622-  26 1.23
 151  0.103  0.066  0.433-  27 1.23
 152  0.397  0.215  0.121-  28 1.23
 153  0.783  0.775  0.443-  29 1.23
 154  0.218  0.005  0.111-  30 1.23
 155  0.283  0.275  0.441-  31 1.23
 156  0.396  0.566  0.932-  32 1.23
 

IMPORTANT INFORMATION: All symmetrisations will be switched off!
NOSYMM: (Re-)initialisation of all symmetry stuff for point group C_1.


----------------------------------------------------------------------------------------

                                     Primitive cell                                     

  volume of cell :    3132.1580

  direct lattice vectors                    reciprocal lattice vectors
    17.378731214  0.001071812 -0.015382856     0.057541650 -0.000008796  0.000055877
     0.001734839 30.182861911  2.964721628    -0.000005116  0.033470072 -0.003448067
    -0.005762780  0.621442691  6.032295524     0.000149251 -0.016449722  0.167469153

  length of vectors
    17.378738055 30.328117820  6.064224066     0.057541678  0.033647213  0.168275170

  position of ions in fractional coordinates (direct lattice)
     0.865541039  0.963247106  0.131964078
     0.935964232  0.975828360  0.422279340
     0.866289053  0.816869849  0.921421423
     0.634295298  0.463311219  0.630559863
     0.562825774  0.304347715  0.130473183
     0.063130179  0.804315063  0.132835668
     0.563850990  0.475990710  0.919939087
     0.633460892  0.316849017  0.420551730
     0.436260202  0.476028937  0.419383124
     0.133740493  0.816873208  0.422889753
     0.063623810  0.975991638  0.921759314
     0.436748830  0.304339578  0.630565210
     0.937103366  0.804205938  0.632683328
     0.134204608  0.963275871  0.632711386
     0.366152649  0.317087772  0.919531052
     0.365774741  0.463572936  0.128932076
     0.790522028  0.037874817  0.457205078
     0.853867499  0.071028776  0.088731589
     0.855472208  0.708841861  0.966180653
     0.646054167  0.571107070  0.587090631
     0.644130739  0.208816122  0.464930054
     0.207959275  0.742168259  0.097763979
     0.709319113  0.537934538  0.956329240
     0.707345141  0.241864936  0.096208061
     0.291181108  0.538074353  0.455209900
     0.145075678  0.708902164  0.466765718
     0.145526775  0.071152563  0.588157604
     0.355076083  0.209076153  0.965534520
     0.792375330  0.741917237  0.596539261
     0.208856428  0.038110194  0.957483961
     0.292068918  0.241996923  0.595514019
     0.354225912  0.571416121  0.086586755
     0.752942052  0.081869482  0.454401725
     0.816493787  0.114668197  0.095857269
     0.818088984  0.665199301  0.958760419
     0.683467835  0.614717593  0.594521453
     0.681643580  0.165178914  0.458177001
     0.245570093  0.698224808  0.099838422
     0.746921901  0.581908646  0.953928334
     0.745153595  0.197929879  0.099488220
     0.253504703  0.582013605  0.453047467
     0.182355855  0.665266863  0.458736667
     0.182987625  0.114778375  0.595084715
     0.317684279  0.165412700  0.958565524
     0.754684168  0.697973276  0.599142504
     0.246493523  0.082086348  0.954599585
     0.254345197  0.198042005  0.598694417
     0.316794912  0.615006907  0.094350448
     0.703721890  0.086761857  0.628366343
     0.829963624  0.151581235  0.923784172
     0.831492078  0.628283226  0.131054922
     0.670004104  0.651632136  0.422284966
     0.668201354  0.128262835  0.630270892
     0.294694075  0.693475408  0.925450771
     0.796042345  0.586786656  0.128639843
     0.794408156  0.193073507  0.925559597
     0.204509460  0.586802213  0.627691612
     0.169071388  0.628281953  0.630563741
     0.169492347  0.151652368  0.422627233
     0.330998934  0.128561805  0.131287862
     0.705491774  0.693119826  0.424563584
     0.295565467  0.087041999  0.129266785
     0.205092636  0.193134395  0.424355801
     0.330211108  0.652012388  0.922766600
     0.877043514  0.993748844  0.274303105
     0.878395424  0.786176890  0.780486562
     0.622764502  0.493862034  0.772557874
     0.621401093  0.286210576  0.279214783
     0.121806820  0.786255960  0.281398208
     0.377475499  0.494067265  0.271205406
     0.122467326  0.993902984  0.774160095
     0.378134331  0.286344700  0.778821430
     0.767134959  0.118843259  0.276121456
     0.768801417  0.661023535  0.777799947
     0.732776961  0.618880985  0.775415952
     0.731046552  0.160992040  0.277998659
     0.231493004  0.661180908  0.277821819
     0.267516165  0.619055584  0.274989700
     0.232376400  0.118997289  0.775729730
     0.268433130  0.161150080  0.777667561
     0.970859139  0.890219710  0.026735898
     0.029112680  0.890163727  0.527200505
     0.528981030  0.390276178  0.524722355
     0.470754628  0.390395327  0.024261372
     0.369062229  0.132886636  0.268450783
     0.805944852  0.557711102  0.263488186
     0.804296406  0.222156763  0.790864282
     0.693771845  0.057684211  0.763026025
     0.695597053  0.722204937  0.289764984
     0.631783275  0.647366774  0.285376399
     0.131065161  0.632479595  0.767700448
     0.131149520  0.147374143  0.285979035
     0.869666960  0.632531950  0.268122406
     0.195195814  0.222185903  0.289374483
     0.194748724  0.557682906  0.762269643
     0.304569108  0.722633027  0.791226773
     0.368451212  0.647834864  0.786108484
     0.629922758  0.132515250  0.766727727
     0.868217744  0.147310531  0.787320895
     0.305408288  0.058016935  0.264461601
     0.537858380  0.489121756  0.056126865
     0.462882598  0.291113466  0.494853608
     0.327702446  0.465616047  0.984970751
     0.171790900  0.814858369  0.566891206
     0.037541718  0.989160422  0.057707962
     0.328088945  0.315184845  0.063016822
     0.827444798  0.965228098  0.988089000
     0.963352825  0.791015458  0.497041946
     0.172360714  0.965200054  0.489419742
     0.672399130  0.465245578  0.487123029
     0.536704944  0.291234305  0.994161839
     0.961921331  0.988921235  0.558883084
     0.671510840  0.314809132  0.564561516
     0.462267650  0.489069674  0.556069164
     0.037006148  0.791161421  0.996652090
     0.828147835  0.814898819  0.064794782
     0.914835906  0.928582283  0.194645047
     0.958137687  0.936486297  0.371427437
     0.915030971  0.851750243  0.858123988
     0.585035391  0.428657878  0.692951875
     0.541376213  0.343928476  0.180001731
     0.041538955  0.843855516  0.182516178
     0.541725743  0.436627922  0.869131023
     0.584792930  0.351788801  0.356637567
     0.458175645  0.436629050  0.368739455
     0.084948963  0.851751833  0.359104976
     0.041705617  0.936546920  0.871460596
     0.458282475  0.343941386  0.679798156
     0.958548254  0.843789725  0.682312125
     0.085098600  0.928561825  0.695443139
     0.414879510  0.351955495  0.855708256
     0.414831506  0.428797510  0.191901113
     0.838419658  0.035214014  0.271643581
     0.840032722  0.744634028  0.783009216
     0.661423985  0.535297303  0.770272151
     0.659712878  0.244630236  0.282162634
     0.160273416  0.744750947  0.283861254
     0.338882569  0.535515438  0.269128210
     0.161006178  0.035391451  0.771443442
     0.339742148  0.244794073  0.781854800
     0.780861965  0.005129962  0.610205280
     0.896064517  0.065673692  0.933858182
     0.897718603  0.714188142  0.121394899
     0.603855484  0.565773218  0.431754033
     0.601691598  0.214148723  0.619307815
     0.217397045  0.774952145  0.944848019
     0.718926983  0.505193599  0.109508435
     0.716594839  0.274497262  0.942342625
     0.281781769  0.505293760  0.608196714
     0.103127211  0.714203985  0.622276136
     0.103226052  0.065774507  0.433131033
     0.397223147  0.214500240  0.120803138
     0.783026374  0.774591943  0.442853925
     0.218368664  0.005429134  0.111051474
     0.282738950  0.274602719  0.441435450
     0.396428268  0.566170303  0.931521694

  ion indices of the primitive-cell ions
   primitive index   ion index
                 1           1
                 2           2
                 3           3
                 4           4
                 5           5
                 6           6
                 7           7
                 8           8
                 9           9
                10          10
                11          11
                12          12
                13          13
                14          14
                15          15
                16          16
                17          17
                18          18
                19          19
                20          20
                21          21
                22          22
                23          23
                24          24
                25          25
                26          26
                27          27
                28          28
                29          29
                30          30
                31          31
                32          32
                33          33
                34          34
                35          35
                36          36
                37          37
                38          38
                39          39
                40          40
                41          41
                42          42
                43          43
                44          44
                45          45
                46          46
                47          47
                48          48
                49          49
                50          50
                51          51
                52          52
                53          53
                54          54
                55          55
                56          56
                57          57
                58          58
                59          59
                60          60
                61          61
                62          62
                63          63
                64          64
                65          65
                66          66
                67          67
                68          68
                69          69
                70          70
                71          71
                72          72
                73          73
                74          74
                75          75
                76          76
                77          77
                78          78
                79          79
                80          80
                81          81
                82          82
                83          83
                84          84
                85          85
                86          86
                87          87
                88          88
                89          89
                90          90
                91          91
                92          92
                93          93
                94          94
                95          95
                96          96
                97          97
                98          98
                99          99
               100         100
               101         101
               102         102
               103         103
               104         104
               105         105
               106         106
               107         107
               108         108
               109         109
               110         110
               111         111
               112         112
               113         113
               114         114
               115         115
               116         116
               117         117
               118         118
               119         119
               120         120
               121         121
               122         122
               123         123
               124         124
               125         125
               126         126
               127         127
               128         128
               129         129
               130         130
               131         131
               132         132
               133         133
               134         134
               135         135
               136         136
               137         137
               138         138
               139         139
               140         140
               141         141
               142         142
               143         143
               144         144
               145         145
               146         146
               147         147
               148         148
               149         149
               150         150
               151         151
               152         152
               153         153
               154         154
               155         155
               156         156

----------------------------------------------------------------------------------------

 
 

Automatic generation of k-mesh.
 generate k-points for:    2    1    4
Space group operators:
 irot       det(A)        alpha          n_x          n_y          n_z        tau_x        tau_y        tau_z
    1     1.000000     0.000001     1.000000     0.000000     0.000000     0.000000     0.000000     0.000000
 
 Subroutine IBZKPT returns following result:
 ===========================================
 
 Found      6 irreducible k-points:
 
 Following reciprocal coordinates:
            Coordinates               Weight
  0.000000  0.000000  0.000000      1.000000
  0.500000  0.000000 -0.000000      1.000000
 -0.000000  0.000000  0.250000      2.000000
  0.500000  0.000000  0.250000      2.000000
 -0.000000  0.000000  0.500000      1.000000
  0.500000  0.000000  0.500000      1.000000
 
 Following cartesian coordinates:
            Coordinates               Weight
  0.000000  0.000000  0.000000      1.000000
  0.028771 -0.000004  0.000028      1.000000
  0.000037 -0.004112  0.041867      2.000000
  0.028808 -0.004117  0.041895      2.000000
  0.000075 -0.008225  0.083735      1.000000
  0.028845 -0.008229  0.083763      1.000000
 


--------------------------------------------------------------------------------------------------------




 Dimension of arrays:
   k-points           NKPTS =      6   k-points in BZ     NKDIM =      6   number of bands    NBANDS=    384
   number of dos      NEDOS =    301   number of ions     NIONS =    156
   non local maximal  LDIM  =      6   non local SUM 2l+1 LMDIM =     18
   total plane-waves  NPLWV = 746496
   max r-space proj   IRMAX =   2277   max aug-charges    IRDMAX=   9598
   dimension x,y,z NGX =   108 NGY =  192 NGZ =   36
   dimension x,y,z NGXF=   216 NGYF=  384 NGZF=   72
   support grid    NGXF=   216 NGYF=  384 NGZF=   72
   ions per type =              80   4  32  24  16
   NGX,Y,Z   is equivalent  to a cutoff of  10.33, 10.52,  9.87 a.u.
   NGXF,Y,Z  is equivalent  to a cutoff of  20.66, 21.05, 19.74 a.u.

 SYSTEM =  flex_MOF                                
 POSCAR =  CoH_5	                                  

 Startparameter for this run:
   NWRITE =      2    write-flag & timer
   PREC   = normal    normal or accurate (medium, high low for compatibility)
   ISTART =      0    job   : 0-new  1-cont  2-samecut
   ICHARG =      2    charge: 1-file 2-atom 10-const
   ISPIN  =      2    spin polarized calculation?
   LNONCOLLINEAR =      F non collinear calculations
   LSORBIT =      F    spin-orbit coupling
   INIWAV =      1    electr: 0-lowe 1-rand  2-diag
   LASPH  =      F    aspherical Exc in radial PAW
   METAGGA=      F    non-selfconsistent MetaGGA calc.

 Electronic Relaxation 1
   ENCUT  =  600.0 eV  44.10 Ry    6.64 a.u.  34.71 60.57 12.11*2*pi/ulx,y,z
   ENINI  =  600.0     initial cutoff
   ENAUG  =  644.9 eV  augmentation charge cutoff
   NELM   =     80;   NELMIN=  8; NELMDL= -5     # of ELM steps 
   EDIFF  = 0.1E-05   stopping-criterion for ELM
   LREAL  =      T    real-space projection
   NLSPLINE    = F    spline interpolate recip. space projectors
   LCOMPAT=      F    compatible to vasp.4.4
   GGA_COMPAT  = T    GGA compatible to vasp.4.4-vasp.4.6
   LMAXPAW     = -100 max onsite density
   LMAXMIX     =    2 max onsite mixed and CHGCAR
   VOSKOWN=      0    Vosko Wilk Nusair interpolation
   ROPT   =   -0.00050  -0.00050  -0.00050  -0.00050
   ROPT   =   -0.00050
 Ionic relaxation
   EDIFFG = -.1E-01   stopping-criterion for IOM
   NSW    =    500    number of steps for IOM
   NBLOCK =      1;   KBLOCK =    500    inner block; outer block 
   IBRION =      2    ionic relax: 0-MD 1-quasi-New 2-CG
   NFREE  =      1    steps in history (QN), initial steepest desc. (CG)
   ISIF   =      4    stress and relaxation
   IWAVPR =     11    prediction:  0-non 1-charg 2-wave 3-comb
   ISYM   =      0    0-nonsym 1-usesym 2-fastsym
   LCORR  =      T    Harris-Foulkes like correction to forces

   POTIM  = 0.5000    time-step for ionic-motion
   TEIN   =    0.0    initial temperature
   TEBEG  =    0.0;   TEEND  =   0.0 temperature during run
   SMASS  =  -3.00    Nose mass-parameter (am)
   estimated Nose-frequenzy (Omega)   =  0.10E-29 period in steps = 0.13E+47 mass=  -0.690E-26a.u.
   SCALEE = 1.0000    scale energy and forces
   NPACO  =    256;   APACO  = 16.0  distance and # of slots for P.C.
   PSTRESS=    0.0 pullay stress

  Mass of Ions in am
   POMASS =  12.01 58.93  1.00 14.00 16.00
  Ionic Valenz
   ZVAL   =   4.00  9.00  1.00  5.00  6.00
  Atomic Wigner-Seitz radii
   RWIGS  =  -1.00 -1.00 -1.00 -1.00 -1.00
  virtual crystal weights 
   VCA    =   1.00  1.00  1.00  1.00  1.00
   NELECT =     604.0000    total number of electrons
   NUPDOWN=      -1.0000    fix difference up-down

 DOS related values:
   EMIN   =  10.00;   EMAX   =-10.00  energy-range for DOS
   EFERMI =   0.00
   ISMEAR =     0;   SIGMA  =   0.05  broadening in eV -4-tet -1-fermi 0-gaus

 Electronic relaxation 2 (details)
   IALGO  =     38    algorithm
   LDIAG  =      T    sub-space diagonalisation (order eigenvalues)
   LSUBROT=      F    optimize rotation matrix (better conditioning)
   TURBO    =      0    0=normal 1=particle mesh
   IRESTART =      0    0=no restart 2=restart with 2 vectors
   NREBOOT  =      0    no. of reboots
   NMIN     =      0    reboot dimension
   EREF     =   0.00    reference energy to select bands
   IMIX   =      4    mixing-type and parameters
     AMIX     =   0.40;   BMIX     =  1.00
     AMIX_MAG =   1.60;   BMIX_MAG =  1.00
     AMIN     =   0.10
     WC   =   100.;   INIMIX=   1;  MIXPRE=   1;  MAXMIX= -45

 Intra band minimization:
   WEIMIN = 0.0010     energy-eigenvalue tresh-hold
   EBREAK =  0.65E-09  absolut break condition
   DEPER  =   0.30     relativ break condition  

   TIME   =   0.40     timestep for ELM

  volume/ion in A,a.u.               =      20.08       135.49
  Fermi-wavevector in a.u.,A,eV,Ry     =   0.945814  1.787330 12.171294  0.894565
  Thomas-Fermi vector in A             =   2.073752
 
 Write flags
   LWAVE        =      T    write WAVECAR
   LDOWNSAMPLE  =      F    k-point downsampling of WAVECAR
   LCHARG       =      T    write CHGCAR
   LVTOT        =      F    write LOCPOT, total local potential
   LVHAR        =      F    write LOCPOT, Hartree potential only
   LELF         =      F    write electronic localiz. function (ELF)
   LORBIT       =     11    0 simple, 1 ext, 2 COOP (PROOUT), +10 PAW based schemes


 Dipole corrections
   LMONO  =      F    monopole corrections only (constant potential shift)
   LDIPOL =      F    correct potential (dipole corrections)
   IDIPOL =      0    1-x, 2-y, 3-z, 4-all directions 
   EPSILON=  1.0000000 bulk dielectric constant

 Exchange correlation treatment:
   GGA     =    PE    GGA type
   LEXCH   =     8    internal setting for exchange type
   VOSKOWN=      0    Vosko Wilk Nusair interpolation
   LHFCALC =     F    Hartree Fock is set to
   LHFONE  =     F    Hartree Fock one center treatment
   AEXX    =    0.0000 exact exchange contribution

 Linear response parameters
   LEPSILON=     F    determine dielectric tensor
   LRPA    =     F    only Hartree local field effects (RPA)
   LNABLA  =     F    use nabla operator in PAW spheres
   LVEL    =     F    velocity operator in full k-point grid
   LINTERFAST=   F  fast interpolation
   KINTER  =     0    interpolate to denser k-point grid
   CSHIFT  =0.1000    complex shift for real part using Kramers Kronig
   OMEGAMAX=  -1.0    maximum frequency
   DEG_THRESHOLD= 0.2000000E-02 threshold for treating states as degnerate
   RTIME   =   -0.100 relaxation time in fs
  (WPLASMAI=    0.000 imaginary part of plasma frequency in eV, 0.658/RTIME)
   DFIELD  = 0.0000000 0.0000000 0.0000000 field for delta impulse in time
 
 Orbital magnetization related:
   ORBITALMAG=     F  switch on orbital magnetization
   LCHIMAG   =     F  perturbation theory with respect to B field
   DQ        =  0.001000  dq finite difference perturbation B field
   LLRAUG    =     F  two centre corrections for induced B field



--------------------------------------------------------------------------------------------------------


 conjugate gradient relaxation of ions
 charge density and potential will be updated during run
 spin polarized calculation
 Variant of blocked Davidson
 Davidson routine will perform the subspace rotation
 perform sub-space diagonalisation
    after iterative eigenvector-optimisation
 modified Broyden-mixing scheme, WC =      100.0
 initial mixing is a Kerker type mixing with AMIX =  0.4000 and BMIX =      1.0000
 Hartree-type preconditioning will be used
 using additional bands           82
 real space projection scheme for non local part
 use partial core corrections
 calculate Harris-corrections to forces 
   (improved forces if not selfconsistent)
 use gradient corrections 
 use of overlap-Matrix (Vanderbilt PP)
 Gauss-broadening in eV      SIGMA  =   0.05


--------------------------------------------------------------------------------------------------------


  energy-cutoff  :      600.00
  volume of cell :     3132.16
      direct lattice vectors                 reciprocal lattice vectors
    17.378731214  0.001071812 -0.015382856     0.057541650 -0.000008796  0.000055877
     0.001734839 30.182861911  2.964721628    -0.000005116  0.033470072 -0.003448067
    -0.005762780  0.621442691  6.032295524     0.000149251 -0.016449722  0.167469153

  length of vectors
    17.378738055 30.328117820  6.064224066     0.057541678  0.033647213  0.168275170


 
 k-points in units of 2pi/SCALE and weight: read from INCAR                         
   0.00000000  0.00000000  0.00000000       0.125
   0.02877083 -0.00000440  0.00002794       0.125
   0.00003731 -0.00411243  0.04186729       0.250
   0.02880814 -0.00411683  0.04189523       0.250
   0.00007463 -0.00822486  0.08373458       0.125
   0.02884545 -0.00822926  0.08376251       0.125
 
 k-points in reciprocal lattice and weights: read from INCAR                         
   0.00000000  0.00000000  0.00000000       0.125
   0.50000000  0.00000000 -0.00000000       0.125
  -0.00000000  0.00000000  0.25000000       0.250
   0.50000000  0.00000000  0.25000000       0.250
  -0.00000000  0.00000000  0.50000000       0.125
   0.50000000  0.00000000  0.50000000       0.125
 
 position of ions in fractional coordinates (direct lattice) 
   0.86554104  0.96324711  0.13196408
   0.93596423  0.97582836  0.42227934
   0.86628905  0.81686985  0.92142142
   0.63429530  0.46331122  0.63055986
   0.56282577  0.30434772  0.13047318
   0.06313018  0.80431506  0.13283567
   0.56385099  0.47599071  0.91993909
   0.63346089  0.31684902  0.42055173
   0.43626020  0.47602894  0.41938312
   0.13374049  0.81687321  0.42288975
   0.06362381  0.97599164  0.92175931
   0.43674883  0.30433958  0.63056521
   0.93710337  0.80420594  0.63268333
   0.13420461  0.96327587  0.63271139
   0.36615265  0.31708777  0.91953105
   0.36577474  0.46357294  0.12893208
   0.79052203  0.03787482  0.45720508
   0.85386750  0.07102878  0.08873159
   0.85547221  0.70884186  0.96618065
   0.64605417  0.57110707  0.58709063
   0.64413074  0.20881612  0.46493005
   0.20795927  0.74216826  0.09776398
   0.70931911  0.53793454  0.95632924
   0.70734514  0.24186494  0.09620806
   0.29118111  0.53807435  0.45520990
   0.14507568  0.70890216  0.46676572
   0.14552678  0.07115256  0.58815760
   0.35507608  0.20907615  0.96553452
   0.79237533  0.74191724  0.59653926
   0.20885643  0.03811019  0.95748396
   0.29206892  0.24199692  0.59551402
   0.35422591  0.57141612  0.08658676
   0.75294205  0.08186948  0.45440172
   0.81649379  0.11466820  0.09585727
   0.81808898  0.66519930  0.95876042
   0.68346783  0.61471759  0.59452145
   0.68164358  0.16517891  0.45817700
   0.24557009  0.69822481  0.09983842
   0.74692190  0.58190865  0.95392833
   0.74515359  0.19792988  0.09948822
   0.25350470  0.58201361  0.45304747
   0.18235586  0.66526686  0.45873667
   0.18298763  0.11477838  0.59508472
   0.31768428  0.16541270  0.95856552
   0.75468417  0.69797328  0.59914250
   0.24649352  0.08208635  0.95459958
   0.25434520  0.19804200  0.59869442
   0.31679491  0.61500691  0.09435045
   0.70372189  0.08676186  0.62836634
   0.82996362  0.15158124  0.92378417
   0.83149208  0.62828323  0.13105492
   0.67000410  0.65163214  0.42228497
   0.66820135  0.12826283  0.63027089
   0.29469407  0.69347541  0.92545077
   0.79604235  0.58678666  0.12863984
   0.79440816  0.19307351  0.92555960
   0.20450946  0.58680221  0.62769161
   0.16907139  0.62828195  0.63056374
   0.16949235  0.15165237  0.42262723
   0.33099893  0.12856180  0.13128786
   0.70549177  0.69311983  0.42456358
   0.29556547  0.08704200  0.12926678
   0.20509264  0.19313440  0.42435580
   0.33021111  0.65201239  0.92276660
   0.87704351  0.99374884  0.27430310
   0.87839542  0.78617689  0.78048656
   0.62276450  0.49386203  0.77255787
   0.62140109  0.28621058  0.27921478
   0.12180682  0.78625596  0.28139821
   0.37747550  0.49406727  0.27120541
   0.12246733  0.99390298  0.77416009
   0.37813433  0.28634470  0.77882143
   0.76713496  0.11884326  0.27612146
   0.76880142  0.66102353  0.77779995
   0.73277696  0.61888099  0.77541595
   0.73104655  0.16099204  0.27799866
   0.23149300  0.66118091  0.27782182
   0.26751616  0.61905558  0.27498970
   0.23237640  0.11899729  0.77572973
   0.26843313  0.16115008  0.77766756
   0.97085914  0.89021971  0.02673590
   0.02911268  0.89016373  0.52720051
   0.52898103  0.39027618  0.52472235
   0.47075463  0.39039533  0.02426137
   0.36906223  0.13288664  0.26845078
   0.80594485  0.55771110  0.26348819
   0.80429641  0.22215676  0.79086428
   0.69377184  0.05768421  0.76302603
   0.69559705  0.72220494  0.28976498
   0.63178327  0.64736677  0.28537640
   0.13106516  0.63247960  0.76770045
   0.13114952  0.14737414  0.28597903
   0.86966696  0.63253195  0.26812241
   0.19519581  0.22218590  0.28937448
   0.19474872  0.55768291  0.76226964
   0.30456911  0.72263303  0.79122677
   0.36845121  0.64783486  0.78610848
   0.62992276  0.13251525  0.76672773
   0.86821774  0.14731053  0.78732089
   0.30540829  0.05801694  0.26446160
   0.53785838  0.48912176  0.05612687
   0.46288260  0.29111347  0.49485361
   0.32770245  0.46561605  0.98497075
   0.17179090  0.81485837  0.56689121
   0.03754172  0.98916042  0.05770796
   0.32808895  0.31518484  0.06301682
   0.82744480  0.96522810  0.98808900
   0.96335282  0.79101546  0.49704195
   0.17236071  0.96520005  0.48941974
   0.67239913  0.46524558  0.48712303
   0.53670494  0.29123431  0.99416184
   0.96192133  0.98892123  0.55888308
   0.67151084  0.31480913  0.56456152
   0.46226765  0.48906967  0.55606916
   0.03700615  0.79116142  0.99665209
   0.82814783  0.81489882  0.06479478
   0.91483591  0.92858228  0.19464505
   0.95813769  0.93648630  0.37142744
   0.91503097  0.85175024  0.85812399
   0.58503539  0.42865788  0.69295188
   0.54137621  0.34392848  0.18000173
   0.04153895  0.84385552  0.18251618
   0.54172574  0.43662792  0.86913102
   0.58479293  0.35178880  0.35663757
   0.45817565  0.43662905  0.36873946
   0.08494896  0.85175183  0.35910498
   0.04170562  0.93654692  0.87146060
   0.45828248  0.34394139  0.67979816
   0.95854825  0.84378973  0.68231212
   0.08509860  0.92856183  0.69544314
   0.41487951  0.35195549  0.85570826
   0.41483151  0.42879751  0.19190111
   0.83841966  0.03521401  0.27164358
   0.84003272  0.74463403  0.78300922
   0.66142399  0.53529730  0.77027215
   0.65971288  0.24463024  0.28216263
   0.16027342  0.74475095  0.28386125
   0.33888257  0.53551544  0.26912821
   0.16100618  0.03539145  0.77144344
   0.33974215  0.24479407  0.78185480
   0.78086197  0.00512996  0.61020528
   0.89606452  0.06567369  0.93385818
   0.89771860  0.71418814  0.12139490
   0.60385548  0.56577322  0.43175403
   0.60169160  0.21414872  0.61930782
   0.21739705  0.77495215  0.94484802
   0.71892698  0.50519360  0.10950844
   0.71659484  0.27449726  0.94234262
   0.28178177  0.50529376  0.60819671
   0.10312721  0.71420398  0.62227614
   0.10322605  0.06577451  0.43313103
   0.39722315  0.21450024  0.12080314
   0.78302637  0.77459194  0.44285392
   0.21836866  0.00542913  0.11105147
   0.28273895  0.27460272  0.44143545
   0.39642827  0.56617030  0.93152169
 
 position of ions in cartesian coordinates  (Angst):
  15.04291567 29.15649020  3.63849135
  16.26513022 29.71671824  5.42597542
  15.05111180 25.22900895  7.96675203
  11.02041748 14.37659522  5.16755496
   9.78097396  9.26776991  1.68070118
   1.09775227 24.35914791  3.18490315
   9.79453916 14.93905565  6.95185075
  11.00687271  9.82543789  3.46651701
   7.58005781 14.62900583  3.93442530
   2.32322021 24.91851632  4.97074032
   1.10208238 30.03110963  8.45288939
   7.58703470  9.57816771  4.69931938
  16.28341668 24.66741761  6.18636422
   2.33033076 29.46776030  6.67048242
   6.35851952 10.14244473  6.48132755
   6.35676213 14.07247386  2.14649444
  13.73570078  1.42814441  2.85812395
  14.83874563  2.19990852  0.73270080
  14.86268340 21.99621883  7.91664642
  11.22520921 17.60318145  5.22473951
  11.19185796  6.59228595  3.41376859
   3.61479249 22.46173967  2.78686449
  12.32248833 16.83146794  7.35277540
  12.29262624  7.36072191  1.28653668
   5.05866842 16.52382285  4.33672212
   2.51977118 21.68691976  4.91513465
   2.52580472  2.51325021  3.75664941
   6.16557036  6.91092160  6.43878007
  13.76832726 22.76474976  5.78589020
   3.62420808  1.74552000  5.88559952
   5.07277523  7.67455057  4.30527721
   6.15648925 17.30116224  2.21095762
  13.08270096  2.75424692  2.97222332
  14.18927258  3.52145928  0.90563865
  14.21297746 20.67431014  7.74307239
  11.87544413 18.92412979  5.39828195
  11.84374674  5.27103370  3.24308294
   4.26833261 21.13673003  2.66851948
  12.97606720 18.15728067  7.46808497
  12.94959409  6.03671509  1.17548675
   4.40398899 17.84865102  4.45452490
   3.16762392 20.36493186  4.73676105
   3.17686254  3.83434703  3.92719792
   5.51571266  5.58866272  6.26786624
  13.11321146 21.43997262  5.67189191
   4.27838594  3.07109403  5.99799820
   4.41709024  6.34980136  4.19472851
   5.50601684 18.62164149  2.38760085
  12.22632296  3.00996907  4.03689098
  14.41865414  5.15012398  6.00916808
  14.45061207 19.04572018  2.64045617
  11.64251818 19.93126679  4.46894902
  11.60908214  4.26373286  4.17196503
   5.11727902 21.50650295  7.63402085
  13.83448261 17.79169611  2.50340724
  13.80080698  6.40354472  6.14343795
   3.55151570 18.10166373  5.52298058
   2.93570238 19.35538786  5.66382713
   2.94338953  4.84012276  2.99641215
   5.75180795  3.96230586  1.16802544
  12.25930770 21.18493809  4.60514787
   5.13595887  2.70782533  1.03328410
   3.56213937  6.09328142  3.12927441
   5.73446352 20.25340035  7.49435647
  15.24204673 30.16558782  4.58737465
  15.26226409 24.21503767  7.02540899
  10.81926157 15.38693752  6.11488096
  10.79805005  8.81283631  2.52328185
   2.11659038 23.90645848  4.02663346
   6.55933947 15.08130724  3.09495641
   2.12558969 30.48006392  7.61472425
   6.56750349  9.12710071  5.54119657
  13.33044721  3.75944555  2.00618268
  13.35745767 20.43576417  6.63984354
  12.73133895 19.16226130  6.50107582
  12.70333878  5.03274430  2.14302106
   4.02260071 20.12923050  3.63255963
   4.64858078 18.85604628  3.49003145
   4.03414308  4.07399938  5.02865021
   4.66082525  5.34753416  5.16475641
  16.87369033 26.88703397  2.78559788
   0.50444760 27.19534496  5.81886906
   9.19067235 12.10630381  4.31420330
   8.18165561 11.79882987  1.29652369
   6.41251680  4.17812131  2.00766911
  14.00574808 16.99792382  3.23049904
  13.97347888  7.19766578  5.41698765
  12.05257734  2.21599512  4.76314391
  12.08817727 21.97902977  3.87838435
  10.97907023 19.71740417  3.63101842
   2.27441937 19.56726659  6.50410576
   2.27781990  4.62603355  2.16001591
  15.11326056 19.25917934  3.47929678
   3.39097343  6.88624529  2.40130908
   3.38106042 17.30638177  6.24861454
   5.28971866 22.30316139  6.91063434
   6.39980830 20.04242651  6.65702089
  10.94306970  4.47684199  5.00830905
  15.08424122  4.93645881  5.17273136
   5.30618517  1.91579221  1.76261654
   9.34782132 14.79855052  1.78040989
   8.04196556  9.09465682  3.84105314
   5.69018433 14.66607897  7.31701562
   2.98365466 24.94723216  5.83284088
   0.65381090 29.89159486  3.28011928
   5.70195324  9.55269364  1.30952447
  14.37592112 29.74827395  8.80934901
  16.74035775 24.18502595  5.32862542
   2.99426456 29.43683100  5.81122260
  11.68344369 14.34588277  4.30745028
   9.32202707  9.40867467  6.85225060
  16.71546716 30.19681788  6.28842700
  11.66729909  9.85340291  4.32859359
   8.03126919 15.10758301  4.79721797
   0.63874895 24.49891773  8.35710406
  14.39319895 24.63713238  2.79407015
  15.89917655 28.14921211  3.91307164
  16.65070152 28.49768441  5.00224235
  15.89860977 26.24251560  7.68758407
  10.16392313 13.36937847  5.44194226
   9.40799105 10.49318671  2.09714792
   0.72230648 25.58344238  3.60214923
   9.41025495 13.71937602  6.52900213
  10.16151422 10.84024939  3.18530328
   7.96114391 13.40835584  3.51178090
   1.47571340 25.93156217  4.69012766
   0.72139343 28.80927386  8.03286721
   7.96104712 10.80408214  5.11338415
  16.65588429 25.89303402  6.60276481
   1.47650892 28.45892261  6.94673680
   7.20575883 11.15524242  6.19895312
   7.20888325 13.06203621  2.42248818
  14.56916555  1.23256926  1.73013682
  14.59548241 22.96268174  6.91805349
  11.49119941 16.63619349  6.22334215
  11.46377114  7.55969563  2.41720068
   2.78500481 22.65529029  3.91784875
   5.88872718 16.33099948  3.20590211
   2.79369883  1.54779572  4.75602389
   5.90020649  7.87482779  5.43689929
  13.56688263  0.53488149  3.68413560
  15.56719671  2.56351974  5.81422872
  15.60174974 21.63264424  2.83584946
  10.49273557 17.34561252  4.27253899
  10.45343913  6.84913054  4.36148338
   3.77398429 23.97767549  7.99377567
  12.49428416 15.31701240  2.14728648
  12.44855479  8.87149293  6.48727389
   4.89438133 15.62947321  5.16254305
   1.78987307 21.94353974  5.86958316
   1.79155588  2.25453961  2.80618959
   6.90291026  6.54972909  1.35854330
  13.60679662 23.65544926  4.95583005
   3.79433977  0.23311298  0.68263205
   4.91157671  8.56292583  3.47264038
   6.88503437 17.66795231  7.29165329
 


--------------------------------------------------------------------------------------------------------


 k-point  1 :   0.0000 0.0000 0.0000  plane waves:  104479
 k-point  2 :   0.5000 0.0000-0.0000  plane waves:  104554
 k-point  3 :  -0.0000 0.0000 0.2500  plane waves:  104537
 k-point  4 :   0.5000 0.0000 0.2500  plane waves:  104521
 k-point  5 :  -0.0000 0.0000 0.5000  plane waves:  104642
 k-point  6 :   0.5000 0.0000 0.5000  plane waves:  104608

 maximum and minimum number of plane-waves per node :     26251    26015

 maximum number of plane-waves:    104642
 maximum index in each direction: 
   IXMAX=   34   IYMAX=   60   IZMAX=   12
   IXMIN=  -35   IYMIN=  -60   IZMIN=  -12


 real space projection operators:
  total allocation   :      12100.02 KBytes
  max/ min on nodes  :       3029.41       3021.52


 parallel 3D FFT for wavefunctions:
    minimum data exchange during FFTs selected (reduces bandwidth)
 parallel 3D FFT for charge:
    minimum data exchange during FFTs selected (reduces bandwidth)


 total amount of memory used by VASP MPI-rank0   127114. kBytes
=======================================================================

   base      :      30000. kBytes
   nonlr-proj:       6177. kBytes
   fftplans  :       7623. kBytes
   grid      :      20981. kBytes
   one-center:       1213. kBytes
   wavefun   :      61120. kBytes
 
     INWAV:  cpu time    0.0002: real time    0.0006
 Broyden mixing: mesh for mixing (old mesh)
   NGX = 69   NGY =121   NGZ = 25
  (NGX  =216   NGY  =384   NGZ  = 72)
  gives a total of 208725 points

 initial charge density was supplied:
 charge density of overlapping atoms calculated
 number of electron     604.0000000 magnetization      -0.0000000
 keeping initial charge density in first step


--------------------------------------------------------------------------------------------------------


 Maximum index for non-local projection operator          552
 Maximum index for augmentation-charges          404 (set IRDMAX)


--------------------------------------------------------------------------------------------------------


 First call to EWALD:  gamma=   0.121
 Maximum number of real-space cells 2x 2x 6
 Maximum number of reciprocal cells 3x 5x 1

    FEWALD:  cpu time    0.0151: real time    0.0152


--------------------------------------- Iteration      1(   1)  ---------------------------------------


    POTLOK:  cpu time    0.3151: real time    0.5728
    SETDIJ:  cpu time    0.0647: real time    0.0653
     EDDAV:  cpu time   28.2846: real time   28.4396
       DOS:  cpu time    0.0142: real time    0.0149
    --------------------------------------------
      LOOP:  cpu time   28.6788: real time   29.0926

 eigenvalue-minimisations  :  9216
 total energy-change (2. order) : 0.5245609E+04  (-0.2837175E+05)
 number of electron     604.0000000 magnetization      -0.0000000
 augmentation part      604.0000000 magnetization      -0.0000000

 Free energy of the ion-electron system (eV)
  ---------------------------------------------------
  alpha Z        PSCENC =       539.34441024
  Ewald energy   TEWEN  =     28177.07542532
  -Hartree energ DENC   =    -52581.57834065
  -exchange      EXHF   =         0.00000000
  -V(xc)+E(xc)   XCENC  =      2117.09689161
  PAW double counting   =     22087.95224925   -22402.63741193
  entropy T*S    EENTRO =        -0.04131044
  eigenvalues    EBANDS =     -1383.41406824
  atomic energy  EATOM  =     28691.81066055
  Solvation  Ediel_sol  =         0.00000000
  ---------------------------------------------------
  free energy    TOTEN  =      5245.60850571 eV

  energy without entropy =     5245.64981614  energy(sigma->0) =     5245.62916092


--------------------------------------------------------------------------------------------------------




--------------------------------------- Iteration      1(   2)  ---------------------------------------


     EDDAV:  cpu time   38.9260: real time   38.9788
       DOS:  cpu time    0.0034: real time    0.0034
    --------------------------------------------
      LOOP:  cpu time   38.9296: real time   38.9824

 eigenvalue-minimisations  : 12832
 total energy-change (2. order) :-0.5665142E+04  (-0.5449319E+04)
 number of electron     604.0000000 magnetization      -0.0000000
 augmentation part      604.0000000 magnetization      -0.0000000

 Free energy of the ion-electron system (eV)
  ---------------------------------------------------
  alpha Z        PSCENC =       539.34441024
  Ewald energy   TEWEN  =     28177.07542532
  -Hartree energ DENC   =    -52581.57834065
  -exchange      EXHF   =         0.00000000
  -V(xc)+E(xc)   XCENC  =      2117.09689161
  PAW double counting   =     22087.95224925   -22402.63741193
  entropy T*S    EENTRO =        -0.00000002
  eigenvalues    EBANDS =     -7048.59762541
  atomic energy  EATOM  =     28691.81066055
  Solvation  Ediel_sol  =         0.00000000
  ---------------------------------------------------
  free energy    TOTEN  =      -419.53374105 eV

  energy without entropy =     -419.53374103  energy(sigma->0) =     -419.53374104


--------------------------------------------------------------------------------------------------------




--------------------------------------- Iteration      1(   3)  ---------------------------------------


     EDDAV:  cpu time   32.0477: real time   32.0831
       DOS:  cpu time    0.0053: real time    0.0053
    --------------------------------------------
      LOOP:  cpu time   32.0529: real time   32.0882

 eigenvalue-minimisations  : 10848
 total energy-change (2. order) :-0.8461480E+03  (-0.8391543E+03)
 number of electron     604.0000000 magnetization      -0.0000000
 augmentation part      604.0000000 magnetization      -0.0000000

 Free energy of the ion-electron system (eV)
  ---------------------------------------------------
  alpha Z        PSCENC =       539.34441024
  Ewald energy   TEWEN  =     28177.07542532
  -Hartree energ DENC   =    -52581.57834065
  -exchange      EXHF   =         0.00000000
  -V(xc)+E(xc)   XCENC  =      2117.09689161
  PAW double counting   =     22087.95224925   -22402.63741193
  entropy T*S    EENTRO =        -0.07770150
  eigenvalues    EBANDS =     -7894.66794866
  atomic energy  EATOM  =     28691.81066055
  Solvation  Ediel_sol  =         0.00000000
  ---------------------------------------------------
  free energy    TOTEN  =     -1265.68176578 eV

  energy without entropy =    -1265.60406428  energy(sigma->0) =    -1265.64291503


--------------------------------------------------------------------------------------------------------




--------------------------------------- Iteration      1(   4)  ---------------------------------------


     EDDAV:  cpu time   36.9918: real time   37.0358
       DOS:  cpu time    0.0049: real time    0.0049
    --------------------------------------------
      LOOP:  cpu time   36.9967: real time   37.0407

 eigenvalue-minimisations  : 12352
 total energy-change (2. order) :-0.2922966E+02  (-0.2904277E+02)
 number of electron     604.0000000 magnetization      -0.0000000
 augmentation part      604.0000000 magnetization      -0.0000000

 Free energy of the ion-electron system (eV)
  ---------------------------------------------------
  alpha Z        PSCENC =       539.34441024
  Ewald energy   TEWEN  =     28177.07542532
  -Hartree energ DENC   =    -52581.57834065
  -exchange      EXHF   =         0.00000000
  -V(xc)+E(xc)   XCENC  =      2117.09689161
  PAW double counting   =     22087.95224925   -22402.63741193
  entropy T*S    EENTRO =        -0.08805164
  eigenvalues    EBANDS =     -7923.88725523
  atomic energy  EATOM  =     28691.81066055
  Solvation  Ediel_sol  =         0.00000000
  ---------------------------------------------------
  free energy    TOTEN  =     -1294.91142249 eV

  energy without entropy =    -1294.82337085  energy(sigma->0) =    -1294.86739667


--------------------------------------------------------------------------------------------------------




--------------------------------------- Iteration      1(   5)  ---------------------------------------


     EDDAV:  cpu time   39.0502: real time   39.0962
       DOS:  cpu time    0.0050: real time    0.0050
    CHARGE:  cpu time    1.2922: real time    1.2982
    MIXING:  cpu time    0.0127: real time    0.0159
    --------------------------------------------
      LOOP:  cpu time   40.3603: real time   40.4154

 eigenvalue-minimisations  : 13312
 total energy-change (2. order) :-0.8628840E+00  (-0.8614314E+00)
 number of electron     603.9999936 magnetization       0.0002813
 augmentation part       37.2837475 magnetization      -0.0024098

 Broyden mixing:
  rms(total) = 0.84872E+01    rms(broyden)= 0.84867E+01
  rms(prec ) = 0.90769E+01
  weight for this iteration     100.00

 Free energy of the ion-electron system (eV)
  ---------------------------------------------------
  alpha Z        PSCENC =       539.34441024
  Ewald energy   TEWEN  =     28177.07542532
  -Hartree energ DENC   =    -52581.57834065
  -exchange      EXHF   =         0.00000000
  -V(xc)+E(xc)   XCENC  =      2117.09689161
  PAW double counting   =     22087.95224925   -22402.63741193
  entropy T*S    EENTRO =        -0.08846691
  eigenvalues    EBANDS =     -7924.74972396
  atomic energy  EATOM  =     28691.81066055
  Solvation  Ediel_sol  =         0.00000000
  ---------------------------------------------------
  free energy    TOTEN  =     -1295.77430649 eV

  energy without entropy =    -1295.68583958  energy(sigma->0) =    -1295.73007304


--------------------------------------------------------------------------------------------------------




--------------------------------------- Iteration      1(   6)  ---------------------------------------


    POTLOK:  cpu time    0.2612: real time    0.2619
    SETDIJ:  cpu time    0.0633: real time    0.0633
     EDDAV:  cpu time   42.8782: real time   42.9352
       DOS:  cpu time    0.0083: real time    0.0083
    CHARGE:  cpu time    1.2587: real time    1.2650
    MIXING:  cpu time    0.0076: real time    0.0114
    --------------------------------------------
      LOOP:  cpu time   44.4772: real time   44.5451

 eigenvalue-minimisations  : 14720
 total energy-change (2. order) :-0.1972999E+03  (-0.2351685E+03)
 number of electron     603.9999936 magnetization       0.0002931
 augmentation part       56.5926998 magnetization      -0.0017967

 Broyden mixing:
  rms(total) = 0.21505E+02    rms(broyden)= 0.21505E+02
  rms(prec ) = 0.21771E+02
  weight for this iteration     100.00

 eigenvalues of (default mixing * dielectric matrix)
  average eigenvalue GAMMA=   0.0986
  0.0986

 Free energy of the ion-electron system (eV)
  ---------------------------------------------------
  alpha Z        PSCENC =       539.34441024
  Ewald energy   TEWEN  =     28177.07542532
  -Hartree energ DENC   =    -52953.84529256
  -exchange      EXHF   =         0.00000000
  -V(xc)+E(xc)   XCENC  =      2154.52965052
  PAW double counting   =     32856.05522342   -33084.17364152
  entropy T*S    EENTRO =        -0.12785110
  eigenvalues    EBANDS =     -7873.74282541
  atomic energy  EATOM  =     28691.81066055
  Solvation  Ediel_sol  =         0.00000000
  ---------------------------------------------------
  free energy    TOTEN  =     -1493.07424055 eV

  energy without entropy =    -1492.94638945  energy(sigma->0) =    -1493.01031500


--------------------------------------------------------------------------------------------------------




--------------------------------------- Iteration      1(   7)  ---------------------------------------


    POTLOK:  cpu time    0.2612: real time    0.2612
    SETDIJ:  cpu time    0.0619: real time    0.0619
     EDDAV:  cpu time   33.3046: real time   33.3412
       DOS:  cpu time    0.0050: real time    0.0050
    CHARGE:  cpu time    1.2619: real time    1.2684
    MIXING:  cpu time    0.0073: real time    0.0086
    --------------------------------------------
      LOOP:  cpu time   34.9018: real time   34.9462

 eigenvalue-minimisations  : 10880
 total energy-change (2. order) : 0.9039738E+02  (-0.1930902E+02)
 number of electron     603.9999937 magnetization       0.0101761
 augmentation part       54.9758380 magnetization      -0.0723625

 Broyden mixing:
  rms(total) = 0.13946E+02    rms(broyden)= 0.13946E+02
  rms(prec ) = 0.14306E+02
  weight for this iteration     100.00

 eigenvalues of (default mixing * dielectric matrix)
  average eigenvalue GAMMA=   0.4603
  0.4603  0.4603

 Free energy of the ion-electron system (eV)
  ---------------------------------------------------
  alpha Z        PSCENC =       539.34441024
  Ewald energy   TEWEN  =     28177.07542532
  -Hartree energ DENC   =    -53088.22416933
  -exchange      EXHF   =         0.00000000
  -V(xc)+E(xc)   XCENC  =      2156.53906985
  PAW double counting   =     34320.44299244   -34576.75602752
  entropy T*S    EENTRO =        -0.13145977
  eigenvalues    EBANDS =     -7622.77776370
  atomic energy  EATOM  =     28691.81066055
  Solvation  Ediel_sol  =         0.00000000
  ---------------------------------------------------
  free energy    TOTEN  =     -1402.67686193 eV

  energy without entropy =    -1402.54540216  energy(sigma->0) =    -1402.61113204


--------------------------------------------------------------------------------------------------------




--------------------------------------- Iteration      1(   8)  ---------------------------------------


    POTLOK:  cpu time    0.2538: real time    0.2538
    SETDIJ:  cpu time    0.0618: real time    0.0618
     EDDAV:  cpu time   38.6374: real time   38.6820
       DOS:  cpu time    0.0046: real time    0.0056
    CHARGE:  cpu time    1.2659: real time    1.2708
    MIXING:  cpu time    0.0072: real time    0.0078
    --------------------------------------------
      LOOP:  cpu time   40.2307: real time   40.2818

 eigenvalue-minimisations  : 13120
 total energy-change (2. order) : 0.2451924E+03  (-0.2431628E+02)
 number of electron     603.9999928 magnetization       0.0137249
 augmentation part       45.7338696 magnetization      -0.0033086

 Broyden mixing:
  rms(total) = 0.29516E+01    rms(broyden)= 0.29514E+01
  rms(prec ) = 0.29988E+01
  weight for this iteration     100.00

[...]
     11.68344     14.34588      4.30745         0.000265     -0.001372      0.001868
      9.32203      9.40867      6.85225        -0.000519      0.003180      0.006225
     16.71547     30.19682      6.28843        -0.000366     -0.001213     -0.003874
     11.66730      9.85340      4.32859         0.003358     -0.001268      0.000211
      8.03127     15.10758      4.79722        -0.000489     -0.000276     -0.004160
      0.63875     24.49892      8.35710         0.001075      0.004103      0.004548
     14.39320     24.63713      2.79407        -0.002493     -0.000598     -0.001509
     15.89918     28.14921      3.91307         0.000118     -0.006612      0.002423
     16.65070     28.49768      5.00224        -0.003828     -0.000643      0.000788
     15.89861     26.24252      7.68758         0.000032     -0.002867      0.004203
     10.16392     13.36938      5.44194         0.001825     -0.002030     -0.000964
      9.40799     10.49319      2.09715        -0.002697     -0.002652      0.004248
      0.72231     25.58344      3.60215         0.003781     -0.005450      0.006364
      9.41025     13.71938      6.52900         0.002269     -0.000411      0.000967
     10.16151     10.84025      3.18530         0.000961      0.000857      0.007606
      7.96114     13.40836      3.51178        -0.002728      0.002460      0.000223
      1.47571     25.93156      4.69013        -0.000143     -0.000102      0.002652
      0.72139     28.80927      8.03287         0.001605     -0.001555      0.001669
      7.96105     10.80408      5.11338        -0.001649     -0.003156      0.004472
     16.65588     25.89303      6.60276        -0.001312     -0.005540      0.003960
      1.47651     28.45892      6.94674        -0.000268     -0.004145      0.001932
      7.20576     11.15524      6.19895        -0.000486     -0.000457      0.007641
      7.20888     13.06204      2.42249        -0.001221     -0.002672      0.000658
     14.56917      1.23257      1.73014        -0.004476      0.000714      0.004838
     14.59548     22.96268      6.91805        -0.002766      0.001923     -0.002246
     11.49120     16.63619      6.22334         0.003776      0.003575     -0.000456
     11.46377      7.55970      2.41720         0.002748      0.002269     -0.003860
      2.78500     22.65529      3.91785         0.003849      0.001614     -0.003249
      5.88873     16.33100      3.20590        -0.004630      0.001563      0.005625
      2.79370      1.54780      4.75602         0.003521     -0.002858      0.003748
      5.90021      7.87483      5.43690        -0.005620     -0.000865     -0.001955
     13.56688      0.53488      3.68414         0.005361      0.006394     -0.002551
     15.56720      2.56352      5.81423         0.002220      0.001894     -0.000540
     15.60175     21.63264      2.83585        -0.000950     -0.000254     -0.001763
     10.49274     17.34561      4.27254        -0.000332     -0.000114     -0.000702
     10.45344      6.84913      4.36148         0.001190     -0.001335      0.000340
      3.77398     23.97768      7.99378        -0.002622     -0.001396      0.002061
     12.49428     15.31701      2.14729        -0.003125      0.003954     -0.000789
     12.44855      8.87149      6.48727        -0.000115     -0.001999      0.002902
      4.89438     15.62947      5.16254         0.003300      0.007038     -0.003824
      1.78987     21.94354      5.86958        -0.004238     -0.000694     -0.001791
      1.79156      2.25454      2.80619        -0.000922      0.001511     -0.001229
      6.90291      6.54973      1.35854         0.001404      0.001721     -0.000421
     13.60680     23.65545      4.95583        -0.000630      0.000026      0.001961
      3.79434      0.23311      0.68263         0.000149      0.003423     -0.002670
      4.91158      8.56293      3.47264        -0.000341     -0.001823      0.003671
      6.88503     17.66795      7.29165        -0.001527     -0.001100     -0.000840
 -----------------------------------------------------------------------------------
    total drift:                                0.008908     -0.002867     -0.033838


--------------------------------------------------------------------------------------------------------



  FREE ENERGIE OF THE ION-ELECTRON SYSTEM (eV)
  ---------------------------------------------------
  free  energy   TOTEN  =     -1179.20908272 eV

  energy  without entropy=    -1179.20123482  energy(sigma->0) =    -1179.20515877
 


--------------------------------------------------------------------------------------------------------


    POTLOK:  cpu time    0.4027: real time    0.4027


--------------------------------------------------------------------------------------------------------




--------------------------------------------------------------------------------------------------------


  
 reached required accuracy - stopping structural energy minimisation
 writing wavefunctions
     LOOP+:  cpu time 2176.7259: real time 2206.0473
    4ORBIT:  cpu time    0.0000: real time    0.0000
 


 total charge     
 
# of ion       s       p       d       tot
------------------------------------------
    1        0.867   1.770   0.000   2.637
    2        0.869   1.777   0.000   2.645
    3        0.867   1.770   0.000   2.637
    4        0.867   1.770   0.000   2.637
    5        0.869   1.777   0.000   2.645
    6        0.869   1.777   0.000   2.645
    7        0.869   1.777   0.000   2.645
    8        0.867   1.770   0.000   2.637
    9        0.869   1.777   0.000   2.646
   10        0.867   1.770   0.000   2.637
   11        0.869   1.776   0.000   2.645
   12        0.869   1.776   0.000   2.645
   13        0.869   1.777   0.000   2.645
   14        0.867   1.770   0.000   2.637
   15        0.867   1.770   0.000   2.637
   16        0.867   1.770   0.000   2.637
   17        0.864   1.717   0.000   2.581
   18        0.864   1.718   0.000   2.582
   19        0.864   1.718   0.000   2.582
   20        0.864   1.718   0.000   2.583
   21        0.864   1.718   0.000   2.582
   22        0.864   1.718   0.000   2.582
   23        0.864   1.717   0.000   2.581
   24        0.864   1.718   0.000   2.582
   25        0.864   1.717   0.000   2.581
   26        0.864   1.718   0.000   2.582
   27        0.864   1.719   0.000   2.583
   28        0.864   1.718   0.000   2.582
   29        0.864   1.718   0.000   2.582
   30        0.864   1.718   0.000   2.581
   31        0.864   1.718   0.000   2.581
   32        0.864   1.718   0.000   2.582
   33        0.867   1.783   0.000   2.650
   34        0.867   1.784   0.000   2.651
   35        0.866   1.784   0.000   2.650
   36        0.867   1.784   0.000   2.651
   37        0.866   1.784   0.000   2.650
   38        0.867   1.783   0.000   2.650
   39        0.867   1.783   0.000   2.650
   40        0.867   1.783   0.000   2.650
   41        0.867   1.783   0.000   2.650
   42        0.866   1.784   0.000   2.650
   43        0.867   1.784   0.000   2.651
   44        0.866   1.784   0.000   2.650
   45        0.867   1.783   0.000   2.650
   46        0.867   1.783   0.000   2.650
   47        0.867   1.783   0.000   2.650
   48        0.867   1.784   0.000   2.651
   49        0.870   1.767   0.000   2.637
   50        0.871   1.767   0.000   2.637
   51        0.870   1.767   0.000   2.637
   52        0.871   1.767   0.000   2.637
   53        0.870   1.767   0.000   2.637
   54        0.870   1.767   0.000   2.638
   55        0.870   1.767   0.000   2.637
   56        0.870   1.767   0.000   2.637
   57        0.870   1.767   0.000   2.637
   58        0.870   1.767   0.000   2.637
   59        0.870   1.767   0.000   2.637
   60        0.870   1.767   0.000   2.637
   61        0.870   1.767   0.000   2.637
   62        0.870   1.767   0.000   2.637
   63        0.870   1.767   0.000   2.638
   64        0.870   1.767   0.000   2.637
   65        0.847   1.795   0.000   2.642
   66        0.847   1.795   0.000   2.642
   67        0.847   1.795   0.000   2.642
   68        0.847   1.795   0.000   2.642
   69        0.847   1.795   0.000   2.642
   70        0.847   1.795   0.000   2.642
   71        0.847   1.795   0.000   2.642
   72        0.847   1.795   0.000   2.642
   73        0.866   1.792   0.000   2.658
   74        0.866   1.792   0.000   2.658
   75        0.866   1.792   0.000   2.658
   76        0.866   1.792   0.000   2.658
   77        0.866   1.792   0.000   2.658
   78        0.866   1.792   0.000   2.658
   79        0.866   1.792   0.000   2.658
   80        0.866   1.792   0.000   2.658
   81        0.410   0.523   7.157   8.089
   82        0.410   0.523   7.157   8.091
   83        0.410   0.523   7.157   8.090
   84        0.410   0.523   7.157   8.090
   85        0.638   0.048   0.000   0.686
   86        0.638   0.048   0.000   0.686
   87        0.638   0.048   0.000   0.686
   88        0.638   0.048   0.000   0.686
   89        0.638   0.048   0.000   0.686
   90        0.638   0.048   0.000   0.686
   91        0.638   0.048   0.000   0.686
   92        0.638   0.048   0.000   0.686
   93        0.638   0.048   0.000   0.686
   94        0.638   0.048   0.000   0.686
   95        0.638   0.048   0.000   0.686
   96        0.638   0.048   0.000   0.686
   97        0.638   0.048   0.000   0.686
   98        0.638   0.048   0.000   0.686
   99        0.638   0.048   0.000   0.686
  100        0.638   0.048   0.000   0.686
  101        0.634   0.050   0.000   0.684
  102        0.634   0.050   0.000   0.684
  103        0.631   0.050   0.000   0.680
  104        0.631   0.050   0.000   0.680
  105        0.634   0.050   0.000   0.684
  106        0.631   0.049   0.000   0.681
  107        0.631   0.050   0.000   0.680
  108        0.634   0.050   0.000   0.684
  109        0.631   0.050   0.000   0.681
  110        0.631   0.050   0.000   0.680
  111        0.634   0.050   0.000   0.684
  112        0.634   0.050   0.000   0.684
  113        0.631   0.050   0.000   0.681
  114        0.634   0.050   0.000   0.684
  115        0.634   0.050   0.000   0.684
  116        0.631   0.050   0.000   0.680
  117        1.238   2.609   0.000   3.847
  118        1.238   2.613   0.000   3.851
  119        1.238   2.608   0.000   3.846
  120        1.238   2.609   0.000   3.847
  121        1.238   2.614   0.000   3.851
  122        1.238   2.614   0.000   3.852
  123        1.238   2.614   0.000   3.851
  124        1.238   2.609   0.000   3.846
  125        1.238   2.614   0.000   3.851
  126        1.238   2.609   0.000   3.847
  127        1.238   2.613   0.000   3.851
  128        1.238   2.614   0.000   3.851
  129        1.238   2.614   0.000   3.852
  130        1.238   2.609   0.000   3.847
  131        1.238   2.609   0.000   3.847
  132        1.238   2.609   0.000   3.847
  133        1.211   2.728   0.000   3.940
  134        1.211   2.729   0.000   3.940
  135        1.211   2.729   0.000   3.940
  136        1.211   2.728   0.000   3.940
  137        1.211   2.729   0.000   3.940
  138        1.212   2.729   0.000   3.940
  139        1.212   2.729   0.000   3.940
  140        1.211   2.728   0.000   3.940
  141        1.585   3.538   0.000   5.123
  142        1.586   3.535   0.000   5.121
  143        1.585   3.535   0.000   5.120
  144        1.586   3.535   0.000   5.120
  145        1.586   3.535   0.000   5.120
  146        1.585   3.538   0.000   5.123
  147        1.585   3.538   0.000   5.123
  148        1.585   3.538   0.000   5.123
  149        1.585   3.538   0.000   5.123
  150        1.585   3.535   0.000   5.120
  151        1.586   3.535   0.000   5.121
  152        1.586   3.535   0.000   5.120
  153        1.585   3.538   0.000   5.123
  154        1.585   3.538   0.000   5.123
  155        1.585   3.538   0.000   5.123
  156        1.585   3.535   0.000   5.120
--------------------------------------------------
tot        146.030 265.209  28.629 439.868
 


 magnetization (x)
 
# of ion       s       p       d       tot
------------------------------------------
    1        0.003   0.013   0.000   0.016
    2        0.003   0.014   0.000   0.017
    3        0.003   0.013   0.000   0.016
    4       -0.003  -0.013   0.000  -0.016
    5       -0.003  -0.014   0.000  -0.017
    6        0.003   0.014   0.000   0.017
    7       -0.003  -0.014   0.000  -0.017
    8       -0.003  -0.013   0.000  -0.016
    9       -0.003  -0.014   0.000  -0.017
   10        0.003   0.013   0.000   0.016
   11        0.003   0.014   0.000   0.017
   12       -0.003  -0.014   0.000  -0.017
   13        0.003   0.014   0.000   0.017
   14        0.003   0.013   0.000   0.016
   15       -0.003  -0.013   0.000  -0.016
   16       -0.003  -0.013   0.000  -0.016
   17        0.000   0.001   0.000   0.001
   18        0.000   0.001   0.000   0.001
   19        0.000   0.001   0.000   0.001
   20       -0.000  -0.001   0.000  -0.001
   21       -0.000  -0.001   0.000  -0.001
   22        0.000   0.001   0.000   0.001
   23       -0.000  -0.001   0.000  -0.001
   24       -0.000  -0.001   0.000  -0.001
   25       -0.000  -0.001   0.000  -0.001
   26        0.000   0.001   0.000   0.001
   27        0.000   0.001   0.000   0.001
   28       -0.000  -0.001   0.000  -0.001
   29        0.000   0.001   0.000   0.001
   30        0.000   0.001   0.000   0.001
   31       -0.000  -0.001   0.000  -0.001
   32       -0.000  -0.001   0.000  -0.001
   33       -0.000  -0.000   0.000  -0.000
   34        0.000  -0.000   0.000  -0.000
   35        0.000  -0.000   0.000  -0.000
   36       -0.000   0.000   0.000   0.000
   37       -0.000   0.000   0.000   0.000
   38       -0.000  -0.000   0.000  -0.000
   39        0.000   0.000   0.000   0.000
   40        0.000   0.000   0.000   0.000
   41        0.000   0.000   0.000   0.000
   42        0.000  -0.000   0.000  -0.000
   43        0.000  -0.000   0.000  -0.000
   44       -0.000   0.000   0.000   0.000
   45       -0.000  -0.000   0.000  -0.000
   46       -0.000  -0.000   0.000  -0.000
   47        0.000   0.000   0.000   0.000
   48       -0.000   0.000   0.000   0.000
   49        0.000   0.000   0.000   0.000
   50        0.000   0.000   0.000   0.000
   51        0.000   0.000   0.000   0.000
   52       -0.000  -0.000   0.000  -0.000
   53       -0.000  -0.000   0.000  -0.000
   54        0.000   0.000   0.000   0.000
   55       -0.000  -0.000   0.000  -0.000
   56       -0.000  -0.000   0.000  -0.000
   57       -0.000  -0.000   0.000  -0.000
   58        0.000   0.000   0.000   0.000
   59        0.000   0.000   0.000   0.000
   60       -0.000  -0.000   0.000  -0.000
   61        0.000   0.000   0.000   0.000
   62        0.000   0.000   0.000   0.000
   63       -0.000  -0.000   0.000  -0.000
   64       -0.000  -0.000   0.000  -0.000
   65        0.002   0.010   0.000   0.011
   66        0.002   0.010   0.000   0.012
   67       -0.002  -0.010   0.000  -0.011
   68       -0.002  -0.010   0.000  -0.012
   69        0.002   0.010   0.000   0.012
   70       -0.002  -0.010   0.000  -0.012
   71        0.002   0.010   0.000   0.011
   72       -0.002  -0.010   0.000  -0.012
   73        0.000   0.000   0.000   0.000
   74        0.000   0.000   0.000   0.000
   75       -0.000  -0.000   0.000  -0.000
   76       -0.000  -0.000   0.000  -0.000
   77        0.000   0.000   0.000   0.000
   78       -0.000  -0.000   0.000  -0.000
   79        0.000   0.000   0.000   0.000
   80       -0.000  -0.000   0.000  -0.000
   81        0.011   0.081   2.346   2.438
   82        0.011   0.081   2.345   2.438
   83       -0.011  -0.081  -2.346  -2.438
   84       -0.011  -0.081  -2.345  -2.438
   85        0.000  -0.000   0.000   0.000
   86        0.000  -0.000   0.000   0.000
   87        0.000  -0.000   0.000   0.000
   88       -0.000   0.000   0.000  -0.000
   89       -0.000   0.000   0.000  -0.000
   90        0.000  -0.000   0.000   0.000
   91       -0.000   0.000   0.000  -0.000
   92       -0.000   0.000   0.000  -0.000
   93       -0.000   0.000   0.000  -0.000
   94        0.000  -0.000   0.000   0.000
   95        0.000  -0.000   0.000   0.000
   96       -0.000   0.000   0.000  -0.000
   97        0.000  -0.000   0.000   0.000
   98        0.000  -0.000   0.000   0.000
   99       -0.000   0.000   0.000  -0.000
  100       -0.000   0.000   0.000  -0.000
  101       -0.000  -0.000   0.000  -0.000
  102       -0.000  -0.000   0.000  -0.000
  103       -0.001  -0.000   0.000  -0.001
  104        0.001   0.000   0.000   0.001
  105        0.000   0.000   0.000   0.000
  106       -0.001  -0.000   0.000  -0.001
  107        0.001   0.000   0.000   0.001
  108        0.000   0.000   0.000   0.000
  109        0.001   0.000   0.000   0.001
  110       -0.001  -0.000   0.000  -0.001
  111       -0.000  -0.000   0.000  -0.000
  112        0.000   0.000   0.000   0.000
  113       -0.001  -0.000   0.000  -0.001
  114       -0.000  -0.000   0.000  -0.000
  115        0.000   0.000   0.000   0.000
  116        0.001   0.000   0.000   0.001
  117        0.013   0.044   0.000   0.057
  118        0.016   0.051   0.000   0.067
  119        0.013   0.044   0.000   0.057
  120       -0.013  -0.044   0.000  -0.057
  121       -0.016  -0.051   0.000  -0.067
  122        0.016   0.051   0.000   0.067
  123       -0.016  -0.051   0.000  -0.067
  124       -0.013  -0.044   0.000  -0.057
  125       -0.016  -0.051   0.000  -0.067
  126        0.013   0.044   0.000   0.057
  127        0.016   0.051   0.000   0.067
  128       -0.016  -0.051   0.000  -0.067
  129        0.016   0.051   0.000   0.067
  130        0.013   0.044   0.000   0.057
  131       -0.013  -0.044   0.000  -0.057
  132       -0.013  -0.044   0.000  -0.057
  133        0.000   0.001   0.000   0.001
  134        0.000   0.001   0.000   0.001
  135       -0.000  -0.001   0.000  -0.001
  136       -0.000  -0.001   0.000  -0.001
  137        0.000   0.001   0.000   0.001
  138       -0.000  -0.001   0.000  -0.001
  139        0.000   0.001   0.000   0.001
  140       -0.000  -0.001   0.000  -0.001
  141        0.000   0.001   0.000   0.001
  142        0.000   0.001   0.000   0.001
  143        0.000   0.001   0.000   0.001
  144       -0.000  -0.001   0.000  -0.001
  145       -0.000  -0.001   0.000  -0.001
  146        0.000   0.001   0.000   0.001
  147       -0.000  -0.001   0.000  -0.001
  148       -0.000  -0.001   0.000  -0.001
  149       -0.000  -0.001   0.000  -0.001
  150        0.000   0.001   0.000   0.001
  151        0.000   0.001   0.000   0.001
  152       -0.000  -0.001   0.000  -0.001
  153        0.000   0.001   0.000   0.001
  154        0.000   0.001   0.000   0.001
  155       -0.000  -0.001   0.000  -0.001
  156       -0.000  -0.001   0.000  -0.001
--------------------------------------------------
tot         -0.000  -0.000   0.000  -0.000
 

 total amount of memory used by VASP MPI-rank0   127114. kBytes
=======================================================================

   base      :      30000. kBytes
   nonlr-proj:       6177. kBytes
   fftplans  :       7623. kBytes
   grid      :      20981. kBytes
   one-center:       1213. kBytes
   wavefun   :      61120. kBytes
 
  
  
 General timing and accounting informations for this job:
 ========================================================
  
                  Total CPU time used (sec):     2426.550
                            User time (sec):     2279.956
                          System time (sec):      146.594
                         Elapsed time (sec):     2467.482
  
                   Maximum memory used (kb):      962612.
                   Average memory used (kb):           0.
  
                          Minor page faults:        93169
                          Major page faults:           10
                 Voluntary context switches:        51593
