       N       E                     dE             d eps       ncg     rms          rms(c)
DAV:   1     0.576705928240E+04    0.57671E+04   -0.25695E+05  3072   0.139E+03
DAV:   2    -0.152966629747E+03   -0.59200E+04   -0.56990E+04  4576   0.313E+02
DAV:   3    -0.125286896153E+04   -0.10999E+04   -0.10904E+04  3744   0.142E+02
DAV:   4    -0.130098040431E+04   -0.48111E+02   -0.47730E+02  4640   0.448E+01
DAV:   5    -0.130169304252E+04   -0.71264E+00   -0.70684E+00  3840   0.412E+00
DAV:   6    -0.130173973881E+04   -0.46696E-01   -0.46588E-01  4832   0.134E+00
DAV:   7    -0.130174099033E+04   -0.12515E-02   -0.12485E-02  3936   0.133E-01
DAV:   8    -0.130174103541E+04   -0.45080E-04   -0.45040E-04  4864   0.304E-02    0.951E+01
DAV:   9    -0.161670204900E+04   -0.31496E+03   -0.37518E+03  4736   0.763E+01    0.319E+02
DAV:  10    -0.151695529939E+04    0.99747E+02   -0.23772E+02  3712   0.317E+01    0.202E+02
DAV:  11    -0.115888702222E+04    0.35807E+03   -0.35243E+02  4288   0.849E+01    0.390E+01
DAV:  12    -0.118815116935E+04   -0.29264E+02   -0.28612E+02  4352   0.341E+01    0.709E+01
DAV:  13    -0.120002344413E+04   -0.11872E+02   -0.71645E+02  4608   0.264E+01    0.730E+01
DAV:  14    -0.114579412375E+04    0.54229E+02   -0.61483E+01  4192   0.163E+01    0.325E+01
DAV:  15    -0.114782612215E+04   -0.20320E+01   -0.39684E+01  4384   0.842E+00    0.270E+01
DAV:  16    -0.115603249087E+04   -0.82064E+01   -0.56231E+00  3808   0.441E+00    0.255E+01
DAV:  17    -0.115958781156E+04   -0.35553E+01   -0.16022E+01  4480   0.417E+00    0.298E+01
DAV:  18    -0.116209758725E+04   -0.25098E+01   -0.17459E+01  4064   0.531E+00    0.215E+01
DAV:  19    -0.117122742045E+04   -0.91298E+01   -0.26866E+01  4000   0.602E+00    0.237E+01
DAV:  20    -0.117139060251E+04   -0.16318E+00   -0.63584E-01  3776   0.189E+00    0.215E+01
DAV:  21    -0.117249018003E+04   -0.10996E+01   -0.80850E-01  3904   0.230E+00    0.170E+01
DAV:  22    -0.117260753166E+04   -0.11735E+00   -0.22618E-01  3872   0.853E-01    0.165E+01
DAV:  23    -0.117274775166E+04   -0.14022E+00   -0.21978E-01  4352   0.716E-01    0.163E+01
DAV:  24    -0.117387418092E+04   -0.11264E+01   -0.72157E+00  4256   0.399E+00    0.150E+01
DAV:  25    -0.117361595796E+04    0.25822E+00   -0.69078E-01  3968   0.205E+00    0.130E+01
DAV:  26    -0.117331993588E+04    0.29602E+00   -0.90189E-01  4352   0.173E+00    0.726E+00
DAV:  27    -0.117348974666E+04   -0.16981E+00   -0.18667E-01  4000   0.917E-01    0.687E+00
DAV:  28    -0.117361321831E+04   -0.12347E+00   -0.61898E-02  4032   0.450E-01    0.775E+00
DAV:  29    -0.117359308223E+04    0.20136E-01   -0.81510E-03  4192   0.262E-01    0.730E+00
DAV:  30    -0.117391442882E+04   -0.32135E+00   -0.68060E-01  4224   0.158E+00    0.687E+00
DAV:  31    -0.117405169604E+04   -0.13727E+00   -0.65935E-02  3680   0.781E-01    0.700E+00
DAV:  32    -0.117424222010E+04   -0.19052E+00   -0.30835E-01  3712   0.114E+00    0.424E+00
DAV:  33    -0.117422218125E+04    0.20039E-01   -0.95392E-02  3904   0.757E-01    0.332E+00
DAV:  34    -0.117447618382E+04   -0.25400E+00   -0.16532E-01  3872   0.883E-01    0.341E+00
DAV:  35    -0.117438416369E+04    0.92020E-01   -0.37459E-01  3840   0.100E+00    0.394E+00
DAV:  36    -0.117428688496E+04    0.97279E-01   -0.19178E-01  3968   0.815E-01    0.261E+00
DAV:  37    -0.117422649436E+04    0.60391E-01   -0.57723E-02  4256   0.672E-01    0.293E+00
DAV:  38    -0.117418788181E+04    0.38613E-01   -0.79298E-02  4352   0.636E-01    0.234E+00
DAV:  39    -0.117431411242E+04   -0.12623E+00   -0.43748E-02  4352   0.461E-01    0.199E+00
DAV:  40    -0.117439233570E+04   -0.78223E-01   -0.22142E-02  4192   0.294E-01    0.164E+00
DAV:  41    -0.117444035011E+04   -0.48014E-01   -0.65135E-03  4160   0.159E-01    0.140E+00
DAV:  42    -0.117444110146E+04   -0.75134E-03   -0.47256E-04  3904   0.551E-02    0.139E+00
DAV:  43    -0.117444435085E+04   -0.32494E-02   -0.22860E-04  4192   0.309E-02    0.133E+00
DAV:  44    -0.117450471018E+04   -0.60359E-01   -0.12284E-02  4256   0.200E-01    0.128E+00
DAV:  45    -0.117460232224E+04   -0.97612E-01   -0.28315E-02  4224   0.335E-01    0.781E-01
DAV:  46    -0.117467565047E+04   -0.73328E-01   -0.98477E-03  4224   0.201E-01    0.894E-01
DAV:  47    -0.117475984783E+04   -0.84197E-01   -0.17310E-02  4224   0.249E-01    0.748E-01
DAV:  48    -0.117482135900E+04   -0.61511E-01   -0.17007E-02  4448   0.246E-01    0.935E-01
DAV:  49    -0.117486757755E+04   -0.46219E-01   -0.11305E-02  4192   0.197E-01    0.106E+00
DAV:  50    -0.117487601268E+04   -0.84351E-02   -0.15840E-03  4160   0.844E-02    0.107E+00
DAV:  51    -0.117488119435E+04   -0.51817E-02   -0.14113E-03  4256   0.872E-02    0.102E+00
DAV:  52    -0.117489297541E+04   -0.11781E-01   -0.43046E-03  3968   0.162E-01    0.887E-01
DAV:  53    -0.117489705021E+04   -0.40748E-02   -0.17350E-03  4288   0.882E-02    0.943E-01
DAV:  54    -0.117487864096E+04    0.18409E-01   -0.37877E-03  4192   0.142E-01    0.774E-01
DAV:  55    -0.117489064707E+04   -0.12006E-01   -0.45581E-03  4192   0.153E-01    0.548E-01
DAV:  56    -0.117489673646E+04   -0.60894E-02   -0.35508E-03  4320   0.139E-01    0.462E-01
DAV:  57    -0.117489893171E+04   -0.21952E-02   -0.21633E-03  4320   0.931E-02    0.451E-01
DAV:  58    -0.117490181671E+04   -0.28850E-02   -0.12823E-03  4128   0.862E-02    0.415E-01
DAV:  59    -0.117491102537E+04   -0.92087E-02   -0.28743E-03  4128   0.140E-01    0.376E-01
DAV:  60    -0.117492093223E+04   -0.99069E-02   -0.34314E-03  4320   0.137E-01    0.270E-01
DAV:  61    -0.117492284505E+04   -0.19128E-02   -0.27656E-03  4288   0.122E-01    0.217E-01
DAV:  62    -0.117492259984E+04    0.24521E-03   -0.14588E-03  4320   0.903E-02    0.172E-01
DAV:  63    -0.117492715195E+04   -0.45521E-02   -0.63751E-04  4160   0.591E-02    0.122E-01
DAV:  64    -0.117493154535E+04   -0.43934E-02   -0.60697E-04  4320   0.582E-02    0.664E-02
DAV:  65    -0.117493380392E+04   -0.22586E-02   -0.16075E-04  4288   0.275E-02    0.509E-02
DAV:  66    -0.117493573744E+04   -0.19335E-02   -0.12482E-04  4192   0.226E-02    0.670E-02
DAV:  67    -0.117493769459E+04   -0.19572E-02   -0.19486E-04  3648   0.230E-02    0.236E-02
DAV:  68    -0.117493812881E+04   -0.43421E-03   -0.51540E-05  4160   0.140E-02    0.173E-02
DAV:  69    -0.117493837391E+04   -0.24510E-03   -0.48311E-05  3776   0.152E-02    0.290E-02
DAV:  70    -0.117493857938E+04   -0.20547E-03   -0.17682E-05  3424   0.777E-03    0.171E-02
DAV:  71    -0.117493869615E+04   -0.11677E-03   -0.46543E-06  3008   0.455E-03    0.899E-03
DAV:  72    -0.117493881009E+04   -0.11394E-03   -0.21477E-06  2496   0.338E-03    0.725E-03
DAV:  73    -0.117493898023E+04   -0.17014E-03   -0.37631E-06  2784   0.333E-03    0.388E-03
DAV:  74    -0.117493903601E+04   -0.55777E-04   -0.71429E-07  2432   0.185E-03    0.284E-03
DAV:  75    -0.117493908172E+04   -0.45707E-04   -0.61968E-07  2368   0.164E-03    0.197E-03
DAV:  76    -0.117493921381E+04   -0.13209E-03   -0.23630E-06  2688   0.221E-03    0.295E-03
DAV:  77    -0.117493927976E+04   -0.65950E-04   -0.88867E-07  2464   0.144E-03    0.293E-03
DAV:  78    -0.117493931942E+04   -0.39661E-04   -0.56292E-07  2368   0.134E-03    0.136E-03
DAV:  79    -0.117493935403E+04   -0.34609E-04   -0.76015E-07  2464   0.136E-03    0.139E-03
DAV:  80    -0.117493937615E+04   -0.22120E-04   -0.77037E-07  2464   0.143E-03    0.146E-03
DAV:  81    -0.117493938328E+04   -0.71303E-05   -0.47786E-07  2400   0.135E-03    0.964E-04
DAV:  82    -0.117493938549E+04   -0.22067E-05   -0.20706E-07  2208   0.959E-04    0.755E-04
DAV:  83    -0.117493938714E+04   -0.16512E-05   -0.13276E-07  2112   0.726E-04    0.664E-04
DAV:  84    -0.117493938832E+04   -0.11794E-05   -0.96762E-08  2112   0.717E-04    0.430E-04
DAV:  85    -0.117493938900E+04   -0.68536E-06   -0.60524E-08  2112   0.509E-04
   1 F= -.11846098E+04 E0= -.11845865E+04  d E =-.118461E+04  mag=     0.0007
