 vasp.6.0.8 29Jun18 (build Mar 14 2019 11:44:20) complex                        
  
 executed on             LinuxIFC date 2021.01.02  17:22:11
 running  128 mpi-ranks, with    1 threads/rank
 distrk:  each k-point on  128 cores,    1 groups
 distr:  one band on NCORES_PER_BAND=   4 cores,   32 groups


--------------------------------------------------------------------------------------------------------


 INCAR:
 POTCAR:    PAW_PBE C 08Apr2002                   
 POTCAR:    PAW_PBE Fe 06Sep2000                  
 POTCAR:    PAW_PBE H 15Jun2001                   
 POTCAR:    PAW_PBE N 08Apr2002                   
 POTCAR:    PAW_PBE O 08Apr2002                   
 POTCAR:    PAW_PBE C 08Apr2002                   
   VRHFIN =C: s2p2                                                              
   LEXCH  = PE                                                                  
   EATOM  =   147.1560 eV,   10.8157 Ry                                         
                                                                                
   TITEL  = PAW_PBE C 08Apr2002                                                 
   LULTRA =        F    use ultrasoft PP ?                                      
   IUNSCR =        1    unscreen: 0-lin 1-nonlin 2-no                           
   RPACOR =    1.200    partial core radius                                     
   POMASS =   12.011; ZVAL   =    4.000    mass and valenz                      
   RCORE  =    1.500    outmost cutoff radius                                   
   RWIGS  =    1.630; RWIGS  =    0.863    wigner-seitz radius (au A)           
   ENMAX  =  400.000; ENMIN  =  300.000 eV                                      
   ICORE  =        2    local potential                                         
   LCOR   =        T    correct aug charges                                     
   LPAW   =        T    paw PP                                                  
   EAUG   =  644.873                                                            
   DEXC   =    0.000                                                            
   RMAX   =    1.529    core radius for proj-oper                               
   RAUG   =    1.300    factor for augmentation sphere                          
   RDEP   =    1.501    radius for radial grids                                 
   RDEPT  =    1.300    core radius for aug-charge                              
                                                                                
   Atomic configuration                                                         
    4 entries                                                                   
     n  l   j            E        occ.                                          
     1  0  0.50      -273.3789   2.0000                                         
     2  0  0.50       -13.7508   2.0000                                         
     2  1  0.50        -5.2854   2.0000                                         
     3  2  1.50        -5.4423   0.0000                                         
   Description                                                                  
     l       E           TYP  RCUT    TYP  RCUT                                 
     0    -13.7508458     23  1.200                                             
     0     -8.2022199     23  1.200                                             
     1     -5.2854383     23  1.500                                             
     1     34.0145650     23  1.500                                             
     2     -5.4423304      7  1.500                                             
  local pseudopotential read in
  partial core-charges read in
  partial kinetic energy density read in
  atomic valenz-charges read in
  non local Contribution for L=           0  read in
    real space projection operators read in
  non local Contribution for L=           0  read in
    real space projection operators read in
  non local Contribution for L=           1  read in
    real space projection operators read in
  non local Contribution for L=           1  read in
    real space projection operators read in
    PAW grid and wavefunctions read in
 
   number of l-projection  operators is LMAX  =           4
   number of lm-projection operators is LMMAX =           8
 
 POTCAR:    PAW_PBE Fe 06Sep2000                  
   VRHFIN =Fe:  d7 s1                                                           
   LEXCH  = PE                                                                  
   EATOM  =   594.3153 eV,   43.6809 Ry                                         
                                                                                
   TITEL  = PAW_PBE Fe 06Sep2000                                                
   LULTRA =        F    use ultrasoft PP ?                                      
   IUNSCR =        1    unscreen: 0-lin 1-nonlin 2-no                           
   RPACOR =    2.000    partial core radius                                     
   POMASS =   55.847; ZVAL   =    8.000    mass and valenz                      
   RCORE  =    2.300    outmost cutoff radius                                   
   RWIGS  =    2.460; RWIGS  =    1.302    wigner-seitz radius (au A)           
   ENMAX  =  267.882; ENMIN  =  200.911 eV                                      
   RCLOC  =    1.701    cutoff for local pot                                    
   LCOR   =        T    correct aug charges                                     
   LPAW   =        T    paw PP                                                  
   EAUG   =  511.368                                                            
   DEXC   =    0.000                                                            
   RMAX   =    2.356    core radius for proj-oper                               
   RAUG   =    1.300    factor for augmentation sphere                          
   RDEP   =    2.442    radius for radial grids                                 
   RDEPT  =    1.890    core radius for aug-charge                              
                                                                                
   Atomic configuration                                                         
    9 entries                                                                   
     n  l   j            E        occ.                                          
     1  0  0.50     -6993.8440   2.0000                                         
     2  0  0.50      -814.6047   2.0000                                         
     2  1  1.50      -693.3689   6.0000                                         
     3  0  0.50       -89.4732   2.0000                                         
     3  1  1.50       -55.6373   6.0000                                         
     3  2  2.50        -3.8151   7.0000                                         
     4  0  0.50        -4.2551   1.0000                                         
     4  1  1.50        -3.4015   0.0000                                         
     4  3  2.50        -1.3606   0.0000                                         
   Description                                                                  
     l       E           TYP  RCUT    TYP  RCUT                                 
     2     -3.8151135     23  2.300                                             
     2     -5.1756961     23  2.300                                             
     0     -4.2550963     23  2.300                                             
     0      7.2035603     23  2.300                                             
     1     -2.7211652     23  2.300                                             
     1     18.4316424     23  2.300                                             
  local pseudopotential read in
  partial core-charges read in
  partial kinetic energy density read in
  atomic valenz-charges read in
  non local Contribution for L=           2  read in
    real space projection operators read in
  non local Contribution for L=           2  read in
    real space projection operators read in
  non local Contribution for L=           0  read in
    real space projection operators read in
  non local Contribution for L=           0  read in
    real space projection operators read in
  non local Contribution for L=           1  read in
    real space projection operators read in
  non local Contribution for L=           1  read in
    real space projection operators read in
    PAW grid and wavefunctions read in
 
   number of l-projection  operators is LMAX  =           6
   number of lm-projection operators is LMMAX =          18
 
 POTCAR:    PAW_PBE H 15Jun2001                   
   VRHFIN =H: ultrasoft test                                                    
   LEXCH  = PE                                                                  
   EATOM  =    12.4884 eV,    0.9179 Ry                                         
                                                                                
   TITEL  = PAW_PBE H 15Jun2001                                                 
   LULTRA =        F    use ultrasoft PP ?                                      
   IUNSCR =        0    unscreen: 0-lin 1-nonlin 2-no                           
   RPACOR =    0.000    partial core radius                                     
   POMASS =    1.000; ZVAL   =    1.000    mass and valenz                      
   RCORE  =    1.100    outmost cutoff radius                                   
   RWIGS  =    0.700; RWIGS  =    0.370    wigner-seitz radius (au A)           
   ENMAX  =  250.000; ENMIN  =  200.000 eV                                      
   RCLOC  =    0.701    cutoff for local pot                                    
   LCOR   =        T    correct aug charges                                     
   LPAW   =        T    paw PP                                                  
   EAUG   =  400.000                                                            
   RMAX   =    1.123    core radius for proj-oper                               
   RAUG   =    1.200    factor for augmentation sphere                          
   RDEP   =    1.112    radius for radial grids                                 
   RDEPT  =    0.926    core radius for aug-charge                              
                                                                                
   Atomic configuration                                                         
    2 entries                                                                   
     n  l   j            E        occ.                                          
     1  0  0.50        -6.4927   1.0000                                         
     2  1  0.50        -3.4015   0.0000                                         
   Description                                                                  
     l       E           TYP  RCUT    TYP  RCUT                                 
     0     -6.4927494     23  1.100                                             
     0      6.8029130     23  1.100                                             
     1     -4.0817478     23  1.100                                             
  local pseudopotential read in
  atomic valenz-charges read in
  non local Contribution for L=           0  read in
    real space projection operators read in
  non local Contribution for L=           0  read in
    real space projection operators read in
  non local Contribution for L=           1  read in
    real space projection operators read in
    PAW grid and wavefunctions read in
 
   number of l-projection  operators is LMAX  =           3
   number of lm-projection operators is LMMAX =           5
 
 POTCAR:    PAW_PBE N 08Apr2002                   
   VRHFIN =N: s2p3                                                              
   LEXCH  = PE                                                                  
   EATOM  =   264.5486 eV,   19.4438 Ry                                         
                                                                                
   TITEL  = PAW_PBE N 08Apr2002                                                 
   LULTRA =        F    use ultrasoft PP ?                                      
   IUNSCR =        1    unscreen: 0-lin 1-nonlin 2-no                           
   RPACOR =    1.200    partial core radius                                     
   POMASS =   14.001; ZVAL   =    5.000    mass and valenz                      
   RCORE  =    1.500    outmost cutoff radius                                   
   RWIGS  =    1.400; RWIGS  =    0.741    wigner-seitz radius (au A)           
   ENMAX  =  400.000; ENMIN  =  300.000 eV                                      
   ICORE  =        2    local potential                                         
   LCOR   =        T    correct aug charges                                     
   LPAW   =        T    paw PP                                                  
   EAUG   =  627.112                                                            
   DEXC   =    0.000                                                            
   RMAX   =    1.529    core radius for proj-oper                               
   RAUG   =    1.300    factor for augmentation sphere                          
   RDEP   =    1.514    radius for radial grids                                 
   RDEPT  =    1.338    core radius for aug-charge                              
                                                                                
   Atomic configuration                                                         
    4 entries                                                                   
     n  l   j            E        occ.                                          
     1  0  0.50      -384.7179   2.0000                                         
     2  0  0.50       -18.5828   2.0000                                         
     2  1  0.50        -7.0898   3.0000                                         
     3  2  1.50        -6.8029   0.0000                                         
   Description                                                                  
     l       E           TYP  RCUT    TYP  RCUT                                 
     0    -18.5828119     23  1.200                                             
     0    -13.5018863     23  1.200                                             
     1     -7.0897853     23  1.500                                             
     1      9.5240782     23  1.500                                             
     2     -6.8029130      7  1.500                                             
  local pseudopotential read in
  partial core-charges read in
  partial kinetic energy density read in
  atomic valenz-charges read in
  non local Contribution for L=           0  read in
    real space projection operators read in
  non local Contribution for L=           0  read in
    real space projection operators read in
  non local Contribution for L=           1  read in
    real space projection operators read in
  non local Contribution for L=           1  read in
    real space projection operators read in
    PAW grid and wavefunctions read in
 
   number of l-projection  operators is LMAX  =           4
   number of lm-projection operators is LMMAX =           8
 
 POTCAR:    PAW_PBE O 08Apr2002                   
   VRHFIN =O: s2p4                                                              
   LEXCH  = PE                                                                  
   EATOM  =   432.3788 eV,   31.7789 Ry                                         
                                                                                
   TITEL  = PAW_PBE O 08Apr2002                                                 
   LULTRA =        F    use ultrasoft PP ?                                      
   IUNSCR =        1    unscreen: 0-lin 1-nonlin 2-no                           
   RPACOR =    1.200    partial core radius                                     
   POMASS =   16.000; ZVAL   =    6.000    mass and valenz                      
   RCORE  =    1.520    outmost cutoff radius                                   
   RWIGS  =    1.550; RWIGS  =    0.820    wigner-seitz radius (au A)           
   ENMAX  =  400.000; ENMIN  =  300.000 eV                                      
   ICORE  =        2    local potential                                         
   LCOR   =        T    correct aug charges                                     
   LPAW   =        T    paw PP                                                  
   EAUG   =  605.392                                                            
   DEXC   =    0.000                                                            
   RMAX   =    1.553    core radius for proj-oper                               
   RAUG   =    1.300    factor for augmentation sphere                          
   RDEP   =    1.550    radius for radial grids                                 
   RDEPT  =    1.329    core radius for aug-charge                              
                                                                                
   Atomic configuration                                                         
    4 entries                                                                   
     n  l   j            E        occ.                                          
     1  0  0.50      -514.6923   2.0000                                         
     2  0  0.50       -23.9615   2.0000                                         
     2  1  0.50        -9.0305   4.0000                                         
     3  2  1.50        -9.5241   0.0000                                         
   Description                                                                  
     l       E           TYP  RCUT    TYP  RCUT                                 
     0    -23.9615318     23  1.200                                             
     0     -9.5240782     23  1.200                                             
     1     -9.0304911     23  1.520                                             
     1      8.1634956     23  1.520                                             
     2     -9.5240782      7  1.500                                             
  local pseudopotential read in
  partial core-charges read in
  partial kinetic energy density read in
  kinetic energy density of atom read in
  atomic valenz-charges read in
  non local Contribution for L=           0  read in
    real space projection operators read in
  non local Contribution for L=           0  read in
    real space projection operators read in
  non local Contribution for L=           1  read in
    real space projection operators read in
  non local Contribution for L=           1  read in
    real space projection operators read in
    PAW grid and wavefunctions read in
 
   number of l-projection  operators is LMAX  =           4
   number of lm-projection operators is LMMAX =           8
 
 Optimization of the real space projectors (new method)

 maximal supplied QI-value         = 25.13
 optimisation between [QCUT,QGAM] = [ 12.32, 24.88] = [ 42.47,173.37] Ry 
 Optimized for a Real-space Cutoff    1.06 Angstroem

   l    n(q)    QCUT    max X(q) W(low)/X(q) W(high)/X(q)  e(spline) 
   0      8    12.315   115.676    0.34E-03    0.18E-03    0.23E-06
   0      8    12.315    87.132    0.34E-03    0.18E-03    0.22E-06
   1      7    12.315     4.429    0.45E-03    0.12E-03    0.18E-06
   1      7    12.315     2.733    0.35E-03    0.97E-04    0.15E-06
 Optimization of the real space projectors (new method)

 maximal supplied QI-value         = 16.25
 optimisation between [QCUT,QGAM] = [ 12.51, 25.03] = [ 43.85,175.40] Ry 
 Optimized for a Real-space Cutoff    1.35 Angstroem

   l    n(q)    QCUT    max X(q) W(low)/X(q) W(high)/X(q)  e(spline) 
   2      9    12.514    80.901    0.12E-03    0.34E-03    0.58E-06
   2      9    12.514    75.754    0.12E-03    0.34E-03    0.59E-06
   0     10    12.514    58.752    0.17E-03    0.81E-04    0.93E-07
   0     10    12.514    30.679    0.15E-03    0.74E-04    0.88E-07
   1     10    12.514    17.977    0.11E-03    0.79E-04    0.24E-06
   1     10    12.514    13.559    0.97E-04    0.61E-04    0.20E-06
 Optimization of the real space projectors (new method)

 maximal supplied QI-value         = 34.20
 optimisation between [QCUT,QGAM] = [ 12.31, 24.97] = [ 42.46,174.58] Ry 
 Optimized for a Real-space Cutoff    1.00 Angstroem

   l    n(q)    QCUT    max X(q) W(low)/X(q) W(high)/X(q)  e(spline) 
   0      7    12.313    19.460    0.14E-03    0.42E-03    0.16E-06
   0      7    12.313    12.209    0.12E-03    0.40E-03    0.16E-06
   1      7    12.313     4.655    0.33E-03    0.59E-03    0.89E-07
 Optimization of the real space projectors (new method)

 maximal supplied QI-value         = 25.13
 optimisation between [QCUT,QGAM] = [ 12.32, 24.88] = [ 42.47,173.37] Ry 
 Optimized for a Real-space Cutoff    1.20 Angstroem

   l    n(q)    QCUT    max X(q) W(low)/X(q) W(high)/X(q)  e(spline) 
   0      9    12.315    79.467    0.14E-03    0.22E-04    0.37E-06
   0      9    12.315    66.151    0.14E-03    0.23E-04    0.36E-06
   1      8    12.315    22.077    0.30E-03    0.54E-03    0.45E-06
   1      8    12.315    15.894    0.30E-03    0.55E-03    0.45E-06
 Optimization of the real space projectors (new method)

 maximal supplied QI-value         = 24.76
 optimisation between [QCUT,QGAM] = [ 12.38, 25.00] = [ 42.90,175.06] Ry 
 Optimized for a Real-space Cutoff    1.13 Angstroem

   l    n(q)    QCUT    max X(q) W(low)/X(q) W(high)/X(q)  e(spline) 
   0      8    12.378    20.381    0.16E-03    0.54E-05    0.27E-06
   0      8    12.378    15.268    0.17E-03    0.61E-05    0.29E-06
   1      8    12.378     5.964    0.38E-03    0.23E-03    0.28E-06
   1      8    12.378     5.382    0.33E-03    0.20E-03    0.25E-06
  PAW_PBE C 08Apr2002                   :
 energy of atom  1       EATOM= -147.1560
 kinetic energy error for atom=    0.0057 (will be added to EATOM!!)
  PAW_PBE Fe 06Sep2000                  :
 energy of atom  2       EATOM= -594.3153
 kinetic energy error for atom=    0.0017 (will be added to EATOM!!)
  PAW_PBE H 15Jun2001                   :
 energy of atom  3       EATOM=  -12.4884
 kinetic energy error for atom=    0.0004 (will be added to EATOM!!)
  PAW_PBE N 08Apr2002                   :
 energy of atom  4       EATOM= -264.5486
 kinetic energy error for atom=    0.0103 (will be added to EATOM!!)
  PAW_PBE O 08Apr2002                   :
 energy of atom  5       EATOM= -432.3788
 kinetic energy error for atom=    0.0168 (will be added to EATOM!!)
 
 
 POSCAR: FeH_exp1
  positions in direct lattice
  velocities in cartesian coordinates
 exchange correlation table for  LEXCH =        8
   RHO(1)=    0.500       N(1)  =     2000
   RHO(2)=  100.500       N(2)  =     4000
 


--------------------------------------------------------------------------------------------------------


 ion  position               nearest neighbor table
   1  0.911  0.972  0.102- 107 1.08 117 1.35  65 1.41
   2  0.922  0.977  0.402- 112 1.08 118 1.35  65 1.41
   3  0.911  0.809  0.907- 116 1.08 119 1.35  66 1.40
   4  0.589  0.472  0.603- 110 1.08 120 1.35  67 1.41
   5  0.579  0.304  0.108- 111 1.08 121 1.35  68 1.41
   6  0.078  0.804  0.107- 115 1.08 122 1.35  69 1.41
   7  0.578  0.477  0.903- 101 1.08 123 1.35  67 1.41
   8  0.589  0.309  0.408- 113 1.08 124 1.35  68 1.40
   9  0.422  0.477  0.403- 114 1.08 125 1.35  70 1.41
  10  0.089  0.809  0.407- 104 1.08 126 1.35  69 1.40
  11  0.078  0.977  0.902- 105 1.08 127 1.35  71 1.41
  12  0.422  0.304  0.607- 102 1.08 128 1.35  72 1.41
  13  0.921  0.804  0.607- 108 1.08 129 1.35  66 1.41
  14  0.089  0.971  0.602- 109 1.08 130 1.35  71 1.40
  15  0.411  0.309  0.907- 106 1.08 131 1.35  72 1.41
  16  0.411  0.471  0.103- 103 1.08 132 1.35  70 1.41
  17  0.819  0.042  0.413- 141 1.23 133 1.43  33 1.48
  18  0.846  0.075  0.095- 142 1.23 133 1.43  34 1.48
  19  0.845  0.707  0.916- 143 1.23 134 1.43  35 1.48
  20  0.654  0.575  0.596- 144 1.23 135 1.43  36 1.48
  21  0.655  0.206  0.416- 145 1.23 136 1.43  37 1.48
  22  0.181  0.739  0.097- 146 1.23 137 1.43  38 1.48
  23  0.681  0.542  0.914- 147 1.23 135 1.43  39 1.48
  24  0.682  0.239  0.098- 148 1.23 136 1.43  40 1.48
  25  0.319  0.542  0.413- 149 1.23 138 1.43  41 1.48
  26  0.154  0.706  0.415- 150 1.23 137 1.43  42 1.48
  27  0.154  0.074  0.594- 151 1.23 139 1.43  43 1.48
  28  0.346  0.206  0.915- 152 1.23 140 1.43  44 1.48
  29  0.818  0.739  0.598- 153 1.23 134 1.43  45 1.48
  30  0.181  0.041  0.912- 154 1.23 139 1.43  46 1.48
  31  0.319  0.239  0.597- 155 1.23 140 1.43  47 1.48
  32  0.346  0.575  0.095- 156 1.23 138 1.43  48 1.48
  33  0.777  0.084  0.410-  49 1.39  73 1.41  17 1.48
  34  0.804  0.116  0.099-  50 1.40  73 1.41  18 1.48
  35  0.803  0.665  0.912-  51 1.40  74 1.41  19 1.48
  36  0.696  0.617  0.600-  52 1.40  75 1.41  20 1.48
  37  0.697  0.165  0.412-  53 1.40  76 1.41  21 1.48
  38  0.223  0.696  0.100-  54 1.39  77 1.41  22 1.48
  39  0.723  0.585  0.911-  55 1.39  75 1.41  23 1.48
  40  0.723  0.197  0.101-  56 1.39  76 1.41  24 1.48
  41  0.277  0.584  0.410-  57 1.39  78 1.41  25 1.48
  42  0.197  0.664  0.411-  58 1.40  77 1.41  26 1.48
  43  0.197  0.116  0.598-  59 1.40  79 1.41  27 1.48
  44  0.304  0.164  0.911-  60 1.40  80 1.41  28 1.48
  45  0.777  0.697  0.601-  61 1.39  74 1.41  29 1.48
  46  0.223  0.084  0.910-  62 1.39  79 1.41  30 1.48
  47  0.277  0.196  0.599-  63 1.39  80 1.41  31 1.48
  48  0.303  0.616  0.099-  64 1.40  78 1.41  32 1.48
  49  0.744  0.089  0.563-  88 1.09  33 1.39  53 1.40
  50  0.796  0.152  0.947-  99 1.09  34 1.40  56 1.40
  51  0.795  0.629  0.064-  93 1.09  35 1.40  55 1.40
  52  0.704  0.652  0.448-  90 1.09  36 1.40  61 1.40
  53  0.705  0.129  0.564-  98 1.09  37 1.40  49 1.40
  54  0.256  0.692  0.948-  96 1.09  38 1.39  64 1.40
  55  0.755  0.589  0.063-  86 1.09  39 1.39  51 1.40
  56  0.756  0.192  0.948-  87 1.09  40 1.39  50 1.40
  57  0.244  0.589  0.563-  95 1.09  41 1.39  58 1.40
  58  0.204  0.629  0.563-  91 1.09  42 1.40  57 1.40
  59  0.205  0.152  0.446-  92 1.09  43 1.40  63 1.40
  60  0.296  0.128  0.063-  85 1.09  44 1.40  62 1.40
  61  0.744  0.692  0.448-  89 1.09  45 1.39  52 1.40
  62  0.256  0.089  0.062- 100 1.09  46 1.39  60 1.40
  63  0.245  0.191  0.447-  94 1.09  47 1.39  59 1.40
  64  0.296  0.652  0.947-  97 1.09  48 1.40  54 1.40
  65  0.892  0.999  0.253-   1 1.41   2 1.41 133 1.43
  66  0.892  0.782  0.757-   3 1.40  13 1.41 134 1.43
  67  0.608  0.499  0.754-   4 1.41   7 1.41 135 1.43
  68  0.608  0.282  0.258-   8 1.40   5 1.41 136 1.43
  69  0.108  0.782  0.257-  10 1.40   6 1.41 137 1.43
  70  0.392  0.498  0.253-  16 1.41   9 1.41 138 1.43
  71  0.108  0.999  0.752-  14 1.40  11 1.41 139 1.43
  72  0.392  0.282  0.757-  15 1.41  12 1.41 140 1.43
  73  0.771  0.120  0.255-  34 1.41  33 1.41  76 1.43
  74  0.770  0.661  0.756-  35 1.41  45 1.41  75 1.43
  75  0.729  0.621  0.756-  36 1.41  39 1.41  74 1.43
  76  0.730  0.161  0.256-  37 1.41  40 1.41  73 1.43
  77  0.230  0.661  0.255-  42 1.41  38 1.41  78 1.43
  78  0.270  0.620  0.255-  48 1.41  41 1.41  77 1.43
  79  0.230  0.120  0.754-  43 1.41  46 1.41  80 1.43
  80  0.271  0.160  0.755-  44 1.41  47 1.41  79 1.43
  81  0.996  0.890  0.005- 119 2.02 117 2.02 127 2.02 122 2.02
  82  0.004  0.890  0.505- 126 2.02 130 2.02 129 2.02 118 2.02
  83  0.504  0.390  0.505- 124 2.02 120 2.02 128 2.02 125 2.02
  84  0.496  0.390  0.005- 132 2.02 131 2.02 121 2.02 123 2.02
  85  0.322  0.132  0.182-  60 1.09
  86  0.749  0.562  0.182-  55 1.09
  87  0.750  0.220  0.830-  56 1.09
  88  0.750  0.061  0.681-  49 1.09
  89  0.750  0.720  0.330-  61 1.09
  90  0.678  0.649  0.329-  52 1.09
  91  0.178  0.632  0.682-  58 1.09
  92  0.179  0.148  0.328-  59 1.09
  93  0.821  0.633  0.183-  51 1.09
  94  0.251  0.219  0.329-  63 1.09
  95  0.250  0.561  0.681-  57 1.09
  96  0.250  0.720  0.829-  54 1.09
  97  0.321  0.648  0.828-  64 1.09
  98  0.679  0.133  0.682-  53 1.09
  99  0.822  0.149  0.828-  50 1.09
 100  0.250  0.061  0.181-  62 1.09
 101  0.580  0.486  0.046-   7 1.08
 102  0.420  0.295  0.464-  12 1.08
 103  0.400  0.476  0.960-  16 1.08
 104  0.100  0.804  0.550-  10 1.08
 105  0.081  0.986  0.045-  11 1.08
 106  0.400  0.304  0.050-  15 1.08
 107  0.900  0.976  0.960-   1 1.08
 108  0.919  0.795  0.465-  13 1.08
 109  0.100  0.976  0.459-  14 1.08
 110  0.600  0.477  0.461-   4 1.08
 111  0.581  0.295  0.965-   5 1.08
 112  0.919  0.986  0.545-   2 1.08
 113  0.601  0.305  0.551-   8 1.08
 114  0.419  0.486  0.546-   9 1.08
 115  0.080  0.795  0.964-   6 1.08
 116  0.900  0.805  0.050-   3 1.08
 117  0.950  0.936  0.159-   1 1.35 118 1.38  81 2.02
 118  0.956  0.939  0.345-   2 1.35 117 1.38  82 2.02
 119  0.950  0.845  0.850-   3 1.35 129 1.38  81 2.02
 120  0.550  0.436  0.660-   4 1.35 123 1.38  83 2.02
 121  0.544  0.341  0.165-   5 1.35 124 1.38  84 2.02
 122  0.044  0.841  0.164-   6 1.35 126 1.38  81 2.02
 123  0.544  0.439  0.846-   7 1.35 120 1.38  84 2.02
 124  0.551  0.345  0.351-   8 1.35 121 1.38  83 2.02
 125  0.456  0.439  0.346-   9 1.35 132 1.38  83 2.02
 126  0.050  0.844  0.350-  10 1.35 122 1.38  82 2.02
 127  0.044  0.939  0.845-  11 1.35 130 1.38  81 2.02
 128  0.456  0.341  0.664-  12 1.35 131 1.38  83 2.02
 129  0.956  0.841  0.664-  13 1.35 119 1.38  82 2.02
 130  0.050  0.936  0.659-  14 1.35 127 1.38  82 2.02
 131  0.450  0.344  0.851-  15 1.35 128 1.38  84 2.02
 132  0.450  0.436  0.160-  16 1.35 125 1.38  84 2.02
 133  0.852  0.039  0.253-  65 1.43  18 1.43  17 1.43
 134  0.851  0.742  0.757-  66 1.43  19 1.43  29 1.43
 135  0.648  0.539  0.754-  67 1.43  20 1.43  23 1.43
 136  0.649  0.242  0.257-  68 1.43  21 1.43  24 1.43
 137  0.148  0.741  0.257-  69 1.43  26 1.43  22 1.43
 138  0.351  0.539  0.253-  70 1.43  32 1.43  25 1.43
 139  0.149  0.039  0.753-  71 1.43  27 1.43  30 1.43
 140  0.352  0.241  0.756-  72 1.43  28 1.43  31 1.43
 141  0.825  0.010  0.545-  17 1.23
 142  0.875  0.071  0.961-  18 1.23
 143  0.875  0.711  0.050-  19 1.23
 144  0.624  0.571  0.462-  20 1.23
 145  0.625  0.211  0.550-  21 1.23
 146  0.175  0.771  0.965-  22 1.23
 147  0.674  0.510  0.047-  23 1.23
 148  0.675  0.271  0.965-  24 1.23
 149  0.325  0.510  0.546-  25 1.23
 150  0.125  0.710  0.549-  26 1.23
 151  0.125  0.070  0.460-  27 1.23
 152  0.375  0.210  0.049-  28 1.23
 153  0.825  0.771  0.465-  29 1.23
 154  0.175  0.010  0.045-  30 1.23
 155  0.326  0.270  0.464-  31 1.23
 156  0.375  0.570  0.961-  32 1.23
 

IMPORTANT INFORMATION: All symmetrisations will be switched off!
NOSYMM: (Re-)initialisation of all symmetry stuff for point group C_1.


----------------------------------------------------------------------------------------

                                     Primitive cell                                     

  volume of cell :    4526.7374

  direct lattice vectors                    reciprocal lattice vectors
    24.884636611  0.001993653 -0.003402402     0.040185437  0.000001008  0.000000511
    -0.000646350 24.828161539  1.862185031    -0.000003131  0.040226556  0.000670483
    -0.000090000 -0.121966766  7.317569529     0.000019482 -0.010236908  0.136486771

  length of vectors
    24.884636924 24.897898283  7.318585909     0.040185437  0.040232144  0.136870133

  position of ions in fractional coordinates (direct lattice)
     0.911208521  0.971687867  0.102402671
     0.921644228  0.976803939  0.402493068
     0.911038581  0.809438076  0.907292749
     0.588686222  0.471819311  0.603375565
     0.578515938  0.303991446  0.107898916
     0.078269399  0.803804904  0.107130502
     0.578133309  0.476946383  0.903370339
     0.589078289  0.309457608  0.407746210
     0.421523839  0.476701667  0.402851850
     0.088628560  0.808965300  0.407213977
     0.078422591  0.976758407  0.902185849
     0.421886736  0.303709612  0.607336052
     0.921453114  0.803995939  0.607345246
     0.088880284  0.971461117  0.602191945
     0.411402909  0.308798237  0.907354546
     0.411050488  0.471434745  0.102887102
     0.818865291  0.041755872  0.412605992
     0.845974524  0.074820849  0.094771617
     0.845395034  0.706604072  0.916132391
     0.653809763  0.575043769  0.595625485
     0.654652619  0.206496849  0.416226432
     0.181069321  0.738907907  0.097432961
     0.680850713  0.542147797  0.913694800
     0.681607937  0.239427129  0.098054353
     0.318581693  0.541516628  0.412747962
     0.154002482  0.705942156  0.415454999
     0.154343803  0.074459641  0.594137554
     0.346165940  0.205639848  0.915012778
     0.818397668  0.739452271  0.597869282
     0.181372254  0.041438809  0.912139045
     0.319167854  0.238609226  0.596915698
     0.345651768  0.574519178  0.094821621
     0.777314409  0.084391956  0.410204927
     0.803547222  0.116453146  0.098967329
     0.802929986  0.665006427  0.912085525
     0.696297752  0.616636642  0.599601948
     0.697082507  0.164863284  0.411939064
     0.222724462  0.696375362  0.100090383
     0.722526227  0.584685463  0.910916741
     0.723251246  0.196869751  0.100552307
     0.276929641  0.584069418  0.410129659
     0.196511790  0.664383893  0.411435931
     0.196924841  0.115942676  0.598166338
     0.303619860  0.164111447  0.910872405
     0.776706606  0.696943322  0.600622759
     0.223082679  0.083917601  0.909534106
     0.277465486  0.196111052  0.599496085
     0.303139341  0.616078165  0.098868168
     0.744437047  0.089161722  0.562742835
     0.796026811  0.152261037  0.947329740
     0.795388102  0.629254010  0.063855333
     0.703826513  0.652380269  0.447798130
     0.704620517  0.129051347  0.563552070
     0.255659481  0.691634155  0.947670524
     0.755477246  0.589445958  0.063322138
     0.756157060  0.192104343  0.948051732
     0.243995446  0.588817550  0.562544145
     0.204081755  0.628618082  0.563156228
     0.204515477  0.151708589  0.446461251
     0.295970652  0.128381846  0.062636610
     0.743748230  0.692178203  0.448218718
     0.255995649  0.088644074  0.062043460
     0.244503142  0.191432859  0.447062035
     0.295579388  0.651841888  0.947137720
     0.892009025  0.998686325  0.252575419
     0.891743749  0.782358448  0.757430522
     0.607786281  0.498882165  0.753563298
     0.608308007  0.282354111  0.257855473
     0.107866946  0.781936497  0.257189954
     0.391824299  0.498487643  0.252904783
     0.108107644  0.998507903  0.752205681
     0.392262683  0.281757707  0.757159012
     0.770545678  0.120337629  0.254988052
     0.769908102  0.661095008  0.756090447
     0.729338068  0.620542265  0.755523479
     0.730048681  0.160954896  0.255847727
     0.229539180  0.660501425  0.255468604
     0.270110600  0.619951984  0.254807017
     0.229968517  0.119764295  0.754150715
     0.270601061  0.160254605  0.754859695
     0.996281071  0.890401037  0.004757668
     0.003690453  0.890308865  0.504705104
     0.503763630  0.390398292  0.505415573
     0.496232899  0.390269429  0.005357025
     0.321761215  0.132091554  0.181557713
     0.749438908  0.561540828  0.181808048
     0.750106784  0.220030283  0.829625553
     0.750470089  0.061171433  0.681037331
     0.749827365  0.720069656  0.329693707
     0.677999970  0.648623135  0.328991527
     0.178262070  0.632350903  0.681985001
     0.178649039  0.148027733  0.327687866
     0.821222800  0.633023367  0.182655842
     0.250586181  0.219347438  0.328630396
     0.250053372  0.560902028  0.680991397
     0.249578037  0.719558625  0.829233292
     0.321397041  0.648124126  0.828316320
     0.678864543  0.132805551  0.682492820
     0.821832773  0.148507485  0.828472125
     0.249850160  0.060752220  0.180519814
     0.580222314  0.485909968  0.046211425
     0.419793550  0.294746821  0.464499876
     0.399576959  0.476072538  0.960074310
     0.100065320  0.804226256  0.550049612
     0.080621888  0.985820175  0.044935484
     0.399937085  0.304049596  0.050138877
     0.899723274  0.976452751  0.959595069
     0.919252411  0.794876914  0.464660198
     0.100376095  0.976129326  0.459412242
     0.600171500  0.476550744  0.460601225
     0.580621784  0.294898421  0.965176154
     0.919451512  0.985776876  0.545316179
     0.600611165  0.304938129  0.550521060
     0.419389892  0.485727102  0.545633624
     0.080466278  0.794791647  0.964334024
     0.899527878  0.804865875  0.050081175
     0.949624535  0.936179284  0.159299688
     0.956057037  0.939375404  0.345448241
     0.949559535  0.844765780  0.850079566
     0.550323702  0.436252144  0.660124794
     0.544022693  0.341380521  0.164695476
     0.043859978  0.841264647  0.163977180
     0.543835063  0.439431913  0.846202749
     0.550521477  0.344772387  0.350698078
     0.455966439  0.439282837  0.345971746
     0.050245288  0.844481657  0.350129091
     0.043962325  0.939346867  0.845328953
     0.456203263  0.341207450  0.664470326
     0.955987495  0.841372265  0.664020898
     0.050403135  0.936045679  0.659227138
     0.449748132  0.344375425  0.850551063
     0.449518543  0.436004301  0.159893426
     0.851541231  0.039178891  0.253271515
     0.851135102  0.742008128  0.757123073
     0.648227376  0.539428553  0.754253196
     0.648910530  0.241975655  0.257386558
     0.148366317  0.741477913  0.256694858
     0.351282336  0.538928666  0.253443672
     0.148679083  0.038897150  0.752787873
     0.351803013  0.241238287  0.756396663
     0.825343448  0.009806588  0.545298264
     0.875270079  0.070679948  0.961015210
     0.874584452  0.710917487  0.050086427
     0.624479274  0.570922287  0.461930079
     0.625492176  0.210758449  0.550253116
     0.174524507  0.770796355  0.964609967
     0.674253010  0.510391629  0.046817169
     0.675046516  0.271337510  0.965319528
     0.325119947  0.509639590  0.545585174
     0.124701213  0.710113488  0.549189333
     0.124999785  0.070377282  0.460434614
     0.375480123  0.209728192  0.048781509
     0.824958294  0.771327247  0.465032625
     0.174773843  0.009577798  0.044974282
     0.325776790  0.270439310  0.463998821
     0.374960233  0.570400257  0.961076008

  ion indices of the primitive-cell ions
   primitive index   ion index
                 1           1
                 2           2
                 3           3
                 4           4
                 5           5
                 6           6
                 7           7
                 8           8
                 9           9
                10          10
                11          11
                12          12
                13          13
                14          14
                15          15
                16          16
                17          17
                18          18
                19          19
                20          20
                21          21
                22          22
                23          23
                24          24
                25          25
                26          26
                27          27
                28          28
                29          29
                30          30
                31          31
                32          32
                33          33
                34          34
                35          35
                36          36
                37          37
                38          38
                39          39
                40          40
                41          41
                42          42
                43          43
                44          44
                45          45
                46          46
                47          47
                48          48
                49          49
                50          50
                51          51
                52          52
                53          53
                54          54
                55          55
                56          56
                57          57
                58          58
                59          59
                60          60
                61          61
                62          62
                63          63
                64          64
                65          65
                66          66
                67          67
                68          68
                69          69
                70          70
                71          71
                72          72
                73          73
                74          74
                75          75
                76          76
                77          77
                78          78
                79          79
                80          80
                81          81
                82          82
                83          83
                84          84
                85          85
                86          86
                87          87
                88          88
                89          89
                90          90
                91          91
                92          92
                93          93
                94          94
                95          95
                96          96
                97          97
                98          98
                99          99
               100         100
               101         101
               102         102
               103         103
               104         104
               105         105
               106         106
               107         107
               108         108
               109         109
               110         110
               111         111
               112         112
               113         113
               114         114
               115         115
               116         116
               117         117
               118         118
               119         119
               120         120
               121         121
               122         122
               123         123
               124         124
               125         125
               126         126
               127         127
               128         128
               129         129
               130         130
               131         131
               132         132
               133         133
               134         134
               135         135
               136         136
               137         137
               138         138
               139         139
               140         140
               141         141
               142         142
               143         143
               144         144
               145         145
               146         146
               147         147
               148         148
               149         149
               150         150
               151         151
               152         152
               153         153
               154         154
               155         155
               156         156

----------------------------------------------------------------------------------------

 
 

Automatic generation of k-mesh.
 generate k-points for:    1    1    3
Space group operators:
 irot       det(A)        alpha          n_x          n_y          n_z        tau_x        tau_y        tau_z
    1     1.000000     0.000000     1.000000     0.000000     0.000000     0.000000     0.000000     0.000000
 
 Subroutine IBZKPT returns following result:
 ===========================================
 
 Found      2 irreducible k-points:
 
 Following reciprocal coordinates:
            Coordinates               Weight
  0.000000  0.000000  0.000000      1.000000
  0.000000 -0.000000  0.333333      2.000000
 
 Following cartesian coordinates:
            Coordinates               Weight
  0.000000  0.000000  0.000000      1.000000
  0.000006 -0.003412  0.045496      2.000000
 


--------------------------------------------------------------------------------------------------------




 Dimension of arrays:
   k-points           NKPTS =      2   k-points in BZ     NKDIM =      2   number of bands    NBANDS=    384
   number of dos      NEDOS =    301   number of ions     NIONS =    156
   non local maximal  LDIM  =      6   non local SUM 2l+1 LMDIM =     18
   total plane-waves  NPLWV = ******
   max r-space proj   IRMAX =   2486   max aug-charges    IRDMAX=   8697
   dimension x,y,z NGX =   150 NGY =  150 NGZ =   48
   dimension x,y,z NGXF=   300 NGYF=  300 NGZF=   96
   support grid    NGXF=   300 NGYF=  300 NGZF=   96
   ions per type =              80   4  32  24  16
   NGX,Y,Z   is equivalent  to a cutoff of  10.02, 10.02, 10.90 a.u.
   NGXF,Y,Z  is equivalent  to a cutoff of  20.04, 20.03, 21.81 a.u.

 SYSTEM =  flex_MOF                                
 POSCAR =  FeH_exp1                                

 Startparameter for this run:
   NWRITE =      2    write-flag & timer
   PREC   = normal    normal or accurate (medium, high low for compatibility)
   ISTART =      0    job   : 0-new  1-cont  2-samecut
   ICHARG =      2    charge: 1-file 2-atom 10-const
   ISPIN  =      2    spin polarized calculation?
   LNONCOLLINEAR =      F non collinear calculations
   LSORBIT =      F    spin-orbit coupling
   INIWAV =      1    electr: 0-lowe 1-rand  2-diag
   LASPH  =      F    aspherical Exc in radial PAW
   METAGGA=      F    non-selfconsistent MetaGGA calc.

 Electronic Relaxation 1
   ENCUT  =  600.0 eV  44.10 Ry    6.64 a.u.  49.70 49.73 14.62*2*pi/ulx,y,z
   ENINI  =  600.0     initial cutoff
   ENAUG  =  644.9 eV  augmentation charge cutoff
   NELM   =    200;   NELMIN=  3; NELMDL= -8     # of ELM steps 
   EDIFF  = 0.1E-05   stopping-criterion for ELM
   LREAL  =      T    real-space projection
   NLSPLINE    = F    spline interpolate recip. space projectors
   LCOMPAT=      F    compatible to vasp.4.4
   GGA_COMPAT  = T    GGA compatible to vasp.4.4-vasp.4.6
   LMAXPAW     = -100 max onsite density
   LMAXMIX     =    2 max onsite mixed and CHGCAR
   VOSKOWN=      0    Vosko Wilk Nusair interpolation
   ROPT   =   -0.00050  -0.00050  -0.00050  -0.00050
   ROPT   =   -0.00050
 Ionic relaxation
   EDIFFG = -.1E-01   stopping-criterion for IOM
   NSW    =   1000    number of steps for IOM
   NBLOCK =      1;   KBLOCK =   1000    inner block; outer block 
   IBRION =      2    ionic relax: 0-MD 1-quasi-New 2-CG
   NFREE  =      1    steps in history (QN), initial steepest desc. (CG)
   ISIF   =      4    stress and relaxation
   IWAVPR =     11    prediction:  0-non 1-charg 2-wave 3-comb
   ISYM   =      0    0-nonsym 1-usesym 2-fastsym
   LCORR  =      T    Harris-Foulkes like correction to forces

   POTIM  = 0.5000    time-step for ionic-motion
   TEIN   =    0.0    initial temperature
   TEBEG  =    0.0;   TEEND  =   0.0 temperature during run
   SMASS  =  -3.00    Nose mass-parameter (am)
   estimated Nose-frequenzy (Omega)   =  0.10E-29 period in steps = 0.13E+47 mass=  -0.142E-25a.u.
   SCALEE = 1.0000    scale energy and forces
   NPACO  =    256;   APACO  = 16.0  distance and # of slots for P.C.
   PSTRESS=    0.0 pullay stress

  Mass of Ions in am
   POMASS =  12.01 55.85  1.00 14.00 16.00
  Ionic Valenz
   ZVAL   =   4.00  8.00  1.00  5.00  6.00
  Atomic Wigner-Seitz radii
   RWIGS  =  -1.00 -1.00 -1.00 -1.00 -1.00
  virtual crystal weights 
   VCA    =   1.00  1.00  1.00  1.00  1.00
   NELECT =     600.0000    total number of electrons
   NUPDOWN=      -1.0000    fix difference up-down

 DOS related values:
   EMIN   =  10.00;   EMAX   =-10.00  energy-range for DOS
   EFERMI =   0.00
   ISMEAR =     0;   SIGMA  =   0.05  broadening in eV -4-tet -1-fermi 0-gaus

 Electronic relaxation 2 (details)
   IALGO  =     38    algorithm
   LDIAG  =      T    sub-space diagonalisation (order eigenvalues)
   LSUBROT=      F    optimize rotation matrix (better conditioning)
   TURBO    =      0    0=normal 1=particle mesh
   IRESTART =      0    0=no restart 2=restart with 2 vectors
   NREBOOT  =      0    no. of reboots
   NMIN     =      0    reboot dimension
   EREF     =   0.00    reference energy to select bands
   IMIX   =      4    mixing-type and parameters
     AMIX     =   0.40;   BMIX     =  1.00
     AMIX_MAG =   1.60;   BMIX_MAG =  1.00
     AMIN     =   0.10
     WC   =   100.;   INIMIX=   1;  MIXPRE=   1;  MAXMIX= -45

 Intra band minimization:
   WEIMIN = 0.0010     energy-eigenvalue tresh-hold
   EBREAK =  0.65E-09  absolut break condition
   DEPER  =   0.30     relativ break condition  

   TIME   =   0.40     timestep for ELM

  volume/ion in A,a.u.               =      29.02       195.82
  Fermi-wavevector in a.u.,A,eV,Ry     =   0.834699  1.577353  9.479495  0.696723
  Thomas-Fermi vector in A             =   1.948135
 
 Write flags
   LWAVE        =      T    write WAVECAR
   LDOWNSAMPLE  =      F    k-point downsampling of WAVECAR
   LCHARG       =      T    write CHGCAR
   LVTOT        =      F    write LOCPOT, total local potential
   LVHAR        =      F    write LOCPOT, Hartree potential only
   LELF         =      F    write electronic localiz. function (ELF)
   LORBIT       =     11    0 simple, 1 ext, 2 COOP (PROOUT), +10 PAW based schemes


 Dipole corrections
   LMONO  =      F    monopole corrections only (constant potential shift)
   LDIPOL =      F    correct potential (dipole corrections)
   IDIPOL =      0    1-x, 2-y, 3-z, 4-all directions 
   EPSILON=  1.0000000 bulk dielectric constant

 Exchange correlation treatment:
   GGA     =    PE    GGA type
   LEXCH   =     8    internal setting for exchange type
   VOSKOWN=      0    Vosko Wilk Nusair interpolation
   LHFCALC =     F    Hartree Fock is set to
   LHFONE  =     F    Hartree Fock one center treatment
   AEXX    =    0.0000 exact exchange contribution

 Linear response parameters
   LEPSILON=     F    determine dielectric tensor
   LRPA    =     F    only Hartree local field effects (RPA)
   LNABLA  =     F    use nabla operator in PAW spheres
   LVEL    =     F    velocity operator in full k-point grid
   LINTERFAST=   F  fast interpolation
   KINTER  =     0    interpolate to denser k-point grid
   CSHIFT  =0.1000    complex shift for real part using Kramers Kronig
   OMEGAMAX=  -1.0    maximum frequency
   DEG_THRESHOLD= 0.2000000E-02 threshold for treating states as degnerate
   RTIME   =   -0.100 relaxation time in fs
  (WPLASMAI=    0.000 imaginary part of plasma frequency in eV, 0.658/RTIME)
   DFIELD  = 0.0000000 0.0000000 0.0000000 field for delta impulse in time
 
 Orbital magnetization related:
   ORBITALMAG=     F  switch on orbital magnetization
   LCHIMAG   =     F  perturbation theory with respect to B field
   DQ        =  0.001000  dq finite difference perturbation B field
   LLRAUG    =     F  two centre corrections for induced B field



--------------------------------------------------------------------------------------------------------


 conjugate gradient relaxation of ions
 charge density and potential will be updated during run
 spin polarized calculation
 Variant of blocked Davidson
 Davidson routine will perform the subspace rotation
 perform sub-space diagonalisation
    after iterative eigenvector-optimisation
 modified Broyden-mixing scheme, WC =      100.0
 initial mixing is a Kerker type mixing with AMIX =  0.4000 and BMIX =      1.0000
 Hartree-type preconditioning will be used
 using additional bands           84
 real space projection scheme for non local part
 use partial core corrections
 calculate Harris-corrections to forces 
   (improved forces if not selfconsistent)
 use gradient corrections 
 use of overlap-Matrix (Vanderbilt PP)
 Gauss-broadening in eV      SIGMA  =   0.05


--------------------------------------------------------------------------------------------------------


  energy-cutoff  :      600.00
  volume of cell :     4526.74
      direct lattice vectors                 reciprocal lattice vectors
    24.884636611  0.001993653 -0.003402402     0.040185437  0.000001008  0.000000511
    -0.000646350 24.828161539  1.862185031    -0.000003131  0.040226556  0.000670483
    -0.000090000 -0.121966766  7.317569529     0.000019482 -0.010236908  0.136486771

  length of vectors
    24.884636924 24.897898283  7.318585909     0.040185437  0.040232144  0.136870133


 
 k-points in units of 2pi/SCALE and weight: read from INCAR                         
   0.00000000  0.00000000  0.00000000       0.333
   0.00000649 -0.00341230  0.04549559       0.667
 
 k-points in reciprocal lattice and weights: read from INCAR                         
   0.00000000  0.00000000  0.00000000       0.333
   0.00000000 -0.00000000  0.33333333       0.667
 
 position of ions in fractional coordinates (direct lattice) 
   0.91120852  0.97168787  0.10240267
   0.92164423  0.97680394  0.40249307
   0.91103858  0.80943808  0.90729275
   0.58868622  0.47181931  0.60337557
   0.57851594  0.30399145  0.10789892
   0.07826940  0.80380490  0.10713050
   0.57813331  0.47694638  0.90337034
   0.58907829  0.30945761  0.40774621
   0.42152384  0.47670167  0.40285185
   0.08862856  0.80896530  0.40721398
   0.07842259  0.97675841  0.90218585
   0.42188674  0.30370961  0.60733605
   0.92145311  0.80399594  0.60734525
   0.08888028  0.97146112  0.60219195
   0.41140291  0.30879824  0.90735455
   0.41105049  0.47143474  0.10288710
   0.81886529  0.04175587  0.41260599
   0.84597452  0.07482085  0.09477162
   0.84539503  0.70660407  0.91613239
   0.65380976  0.57504377  0.59562549
   0.65465262  0.20649685  0.41622643
   0.18106932  0.73890791  0.09743296
   0.68085071  0.54214780  0.91369480
   0.68160794  0.23942713  0.09805435
   0.31858169  0.54151663  0.41274796
   0.15400248  0.70594216  0.41545500
   0.15434380  0.07445964  0.59413755
   0.34616594  0.20563985  0.91501278
   0.81839767  0.73945227  0.59786928
   0.18137225  0.04143881  0.91213905
   0.31916785  0.23860923  0.59691570
   0.34565177  0.57451918  0.09482162
   0.77731441  0.08439196  0.41020493
   0.80354722  0.11645315  0.09896733
   0.80292999  0.66500643  0.91208553
   0.69629775  0.61663664  0.59960195
   0.69708251  0.16486328  0.41193906
   0.22272446  0.69637536  0.10009038
   0.72252623  0.58468546  0.91091674
   0.72325125  0.19686975  0.10055231
   0.27692964  0.58406942  0.41012966
   0.19651179  0.66438389  0.41143593
   0.19692484  0.11594268  0.59816634
   0.30361986  0.16411145  0.91087240
   0.77670661  0.69694332  0.60062276
   0.22308268  0.08391760  0.90953411
   0.27746549  0.19611105  0.59949609
   0.30313934  0.61607817  0.09886817
   0.74443705  0.08916172  0.56274284
   0.79602681  0.15226104  0.94732974
   0.79538810  0.62925401  0.06385533
   0.70382651  0.65238027  0.44779813
   0.70462052  0.12905135  0.56355207
   0.25565948  0.69163416  0.94767052
   0.75547725  0.58944596  0.06332214
   0.75615706  0.19210434  0.94805173
   0.24399545  0.58881755  0.56254414
   0.20408176  0.62861808  0.56315623
   0.20451548  0.15170859  0.44646125
   0.29597065  0.12838185  0.06263661
   0.74374823  0.69217820  0.44821872
   0.25599565  0.08864407  0.06204346
   0.24450314  0.19143286  0.44706204
   0.29557939  0.65184189  0.94713772
   0.89200902  0.99868633  0.25257542
   0.89174375  0.78235845  0.75743052
   0.60778628  0.49888216  0.75356330
   0.60830801  0.28235411  0.25785547
   0.10786695  0.78193650  0.25718995
   0.39182430  0.49848764  0.25290478
   0.10810764  0.99850790  0.75220568
   0.39226268  0.28175771  0.75715901
   0.77054568  0.12033763  0.25498805
   0.76990810  0.66109501  0.75609045
   0.72933807  0.62054227  0.75552348
   0.73004868  0.16095490  0.25584773
   0.22953918  0.66050142  0.25546860
   0.27011060  0.61995198  0.25480702
   0.22996852  0.11976429  0.75415072
   0.27060106  0.16025461  0.75485969
   0.99628107  0.89040104  0.00475767
   0.00369045  0.89030887  0.50470510
   0.50376363  0.39039829  0.50541557
   0.49623290  0.39026943  0.00535703
   0.32176122  0.13209155  0.18155771
   0.74943891  0.56154083  0.18180805
   0.75010678  0.22003028  0.82962555
   0.75047009  0.06117143  0.68103733
   0.74982737  0.72006966  0.32969371
   0.67799997  0.64862314  0.32899153
   0.17826207  0.63235090  0.68198500
   0.17864904  0.14802773  0.32768787
   0.82122280  0.63302337  0.18265584
   0.25058618  0.21934744  0.32863040
   0.25005337  0.56090203  0.68099140
   0.24957804  0.71955862  0.82923329
   0.32139704  0.64812413  0.82831632
   0.67886454  0.13280555  0.68249282
   0.82183277  0.14850748  0.82847212
   0.24985016  0.06075222  0.18051981
   0.58022231  0.48590997  0.04621143
   0.41979355  0.29474682  0.46449988
   0.39957696  0.47607254  0.96007431
   0.10006532  0.80422626  0.55004961
   0.08062189  0.98582018  0.04493548
   0.39993708  0.30404960  0.05013888
   0.89972327  0.97645275  0.95959507
   0.91925241  0.79487691  0.46466020
   0.10037609  0.97612933  0.45941224
   0.60017150  0.47655074  0.46060123
   0.58062178  0.29489842  0.96517615
   0.91945151  0.98577688  0.54531618
   0.60061117  0.30493813  0.55052106
   0.41938989  0.48572710  0.54563362
   0.08046628  0.79479165  0.96433402
   0.89952788  0.80486588  0.05008118
   0.94962453  0.93617928  0.15929969
   0.95605704  0.93937540  0.34544824
   0.94955953  0.84476578  0.85007957
   0.55032370  0.43625214  0.66012479
   0.54402269  0.34138052  0.16469548
   0.04385998  0.84126465  0.16397718
   0.54383506  0.43943191  0.84620275
   0.55052148  0.34477239  0.35069808
   0.45596644  0.43928284  0.34597175
   0.05024529  0.84448166  0.35012909
   0.04396233  0.93934687  0.84532895
   0.45620326  0.34120745  0.66447033
   0.95598749  0.84137226  0.66402090
   0.05040314  0.93604568  0.65922714
   0.44974813  0.34437542  0.85055106
   0.44951854  0.43600430  0.15989343
   0.85154123  0.03917889  0.25327152
   0.85113510  0.74200813  0.75712307
   0.64822738  0.53942855  0.75425320
   0.64891053  0.24197566  0.25738656
   0.14836632  0.74147791  0.25669486
   0.35128234  0.53892867  0.25344367
   0.14867908  0.03889715  0.75278787
   0.35180301  0.24123829  0.75639666
   0.82534345  0.00980659  0.54529826
   0.87527008  0.07067995  0.96101521
   0.87458445  0.71091749  0.05008643
   0.62447927  0.57092229  0.46193008
   0.62549218  0.21075845  0.55025312
   0.17452451  0.77079635  0.96460997
   0.67425301  0.51039163  0.04681717
   0.67504652  0.27133751  0.96531953
   0.32511995  0.50963959  0.54558517
   0.12470121  0.71011349  0.54918933
   0.12499978  0.07037728  0.46043461
   0.37548012  0.20972819  0.04878151
   0.82495829  0.77132725  0.46503263
   0.17477384  0.00957780  0.04497428
   0.32577679  0.27043931  0.46399882
   0.37496023  0.57040026  0.96107601
 
 position of ions in cartesian coordinates  (Angst):
  22.67445566 24.11455023  2.55570097
  22.93411411 24.20499265  4.76112488
  22.67025920 19.98801604  8.14340152
  14.64888344 11.64198793  5.29185456
  14.39595269  7.53554200  1.35367780
   1.94717636 19.94408768  2.28050205
  14.38624773 11.73267328  7.49667064
  14.65876244  7.63470640  3.55797429
  10.48912318 11.78733184  3.83416894
   2.20492998 20.03563127  4.48595811
   1.95080514 24.14123518  8.42044574
  10.49824715  7.46731760  5.00835185
  22.92945156 19.88950218  5.93834511
   2.21107146 24.04632335  6.21531937
  10.23733064  7.55704561  7.21326967
  10.22852804 11.69312869  1.62938369
  20.37710107  0.98802985  3.09424408
  21.05171173  1.84779171  0.82994982
  21.03680905 17.43362776  8.01681362
  16.26939308 14.20593655  5.42714428
  16.29062161  5.07747649  3.42807381
   4.50535790 18.33420228  2.08833964
  16.94228992 13.35045007  7.69328821
  16.96140224  5.93393496  1.16105806
   7.92740251 13.39515594  4.02763213
   3.83180213 17.47688120  4.35419178
   3.84068785  1.77653866  4.48577535
   8.61399835  4.99474835  7.07743128
  20.36499681 18.28795187  5.74916248
   4.51327376  0.91796038  6.75119051
   7.94216812  5.85206083  4.81122072
   8.60103877 14.25337897  1.76254877
  19.34309513  2.04681543  3.15621178
  19.99589644  2.88084880  0.93832363
  19.98010901 16.40124364  7.90988237
  17.32666401 15.23821083  5.53355138
  17.34650123  4.04439912  3.31902693
   5.54195818 17.27795631  2.02844031
  17.97934271 14.40700402  7.75203078
  17.99770814  4.87709186  1.09994561
   6.89087906 14.45189977  4.08785540
   4.88965803 16.44564089  4.24724816
   4.90027434  2.80607968  4.59236047
   7.55528183  3.96409467  6.96994500
  19.32755711 17.23211385  5.69029356
   5.55119531  1.97303157  6.81109015
   6.90444708  4.79651144  4.75110530
   7.54310525 15.28463393  1.86969483
  18.52493712  2.14656987  4.28141257
  19.80865424  3.66640588  7.21298106
  19.79253141 15.61701772  1.63634701
  17.51400505 16.14418939  4.48925202
  17.53409139  3.13677783  4.36175154
   6.36146096 17.05692992  8.22172587
  18.79939004 14.62864244  1.55845115
  18.81648417  4.65547436  7.29259554
   6.07130680 14.55113200  5.21211295
   5.07804332 15.53915181  5.29084367
   5.08915508  3.71259964  3.54882487
   7.36503351  3.18043570  0.69641149
  18.50741669 17.13232722  4.56630499
   6.37029583  2.19381251  0.61820800
   6.08420786  4.69888670  3.62705903
   7.35487910 16.06910566  8.14359065
  22.19665221 24.76651796  3.70494194
  22.19014530 19.33391842  6.99641263
  15.12415048 12.29562901  6.44119479
  15.13731801  6.98009644  2.41060124
   2.68370119 19.38289209  3.33774880
   9.75006033 12.34646692  2.77759142
   2.68950634 24.69958694  7.36335601
   9.76106405  6.90395967  6.06391407
  19.17464846  2.95819822  2.08736202
  19.15838800 16.32309067  6.76120611
  18.14884371 15.31622890  6.68167860
  18.16686906  3.96646470  2.16942741
   5.71154918 16.36833501  3.09860415
   6.72118049 15.36172852  3.01811435
   5.72253769  2.88200442  5.74079113
   6.73363755  3.88729892  5.82124134
  24.79151648 22.10842674  1.68951630
   0.09121471 22.04318243  5.35112198
  12.53567706  9.63223228  4.42369345
  12.34832262  9.69000836  0.76426591
   8.00680920  3.25808791  1.57344534
  18.64913556 13.92134596  2.37353606
  18.66591785  5.36325612  6.47802760
  18.67507462  1.43720648  5.09489715
  18.65868642 17.83928895  3.75090834
  16.87133404 16.06534564  3.61296784
   4.43551674 15.61728626  6.16742053
   4.44549124  3.63564559  2.67292594
  20.43540536 15.69616571  2.51260933
   6.23557469  5.40641123  2.81238870
   6.22206346 13.84360635  6.02685447
   6.21011903 17.76467644  7.40707440
   7.99735511 15.99134419  7.26709579
  16.89315019  3.21542965  5.23918740
  20.45083936  3.58776020  6.33615459
   6.21737492  1.48684663  1.43324808
  14.43830322 12.05977168  1.24103544
  10.44617764  7.26220505  3.94645495
   9.94293331 11.70370533  7.91058615
   2.48951981 19.90057112  5.52230391
   2.00560516 24.47078266  2.16432379
   9.95208798  7.54367454  0.93173057
  22.38856922 24.12828167  8.83717811
  22.87470660 19.68049199  4.87726353
   2.49715037 24.17966369  5.17917292
  14.93470020 11.77689735  4.25586513
  14.44828463  7.20522379  7.60992353
  22.87953053 24.41035012  5.82295966
  14.94574394  7.50510526  4.59428383
  10.43600201 11.99399789  4.89579879
   2.00177359 19.61575913  8.53635660
  22.38389963 19.97902508  1.86222111
  23.63044203 23.22607445  2.90579459
  23.79049370 23.28273711  4.27387944
  23.62882144 20.87219289  7.79039574
  13.69426397 10.75192256  5.64101887
  13.53757154  8.45684794  1.83903331
   1.09088110 20.86714223  2.76635562
  13.53277773 10.80816212  7.00860064
  13.69927249  8.51838855  3.20641445
  11.34624408 10.86529722  3.34814685
   1.24975840 20.92432306  4.13450411
   1.09330326 23.21924136  7.93484148
  11.35217207  8.39141990  5.49614703
  23.78879783 20.81064393  6.42255728
   1.25359936 23.15999001  6.56685918
  11.19151970  8.44736635  6.86372708
  11.18580938 10.80657972  1.98042250
  21.19024598  0.94354680  1.92339298
  21.17963997 18.33205069  6.91916125
  16.13048616 13.30231778  6.52161045
  16.14772316  5.97771175  2.33183962
   3.69153954 18.37852095  3.25864674
   8.74116213 13.35039660  2.85698138
   3.69973206  0.87422605  5.58050542
   8.75426614  5.89794929  5.98301853
  20.53831636  0.17861673  4.00571149
  21.78064567  1.63938624  7.16093674
  21.76325228 17.64640895  1.68739513
  15.53952922 14.11985564  4.44124368
  15.56495975  5.16687924  4.41685849
   4.34239393 19.02015400  8.49337213
  16.77820702 12.66771989  1.29073746
  16.79802499  6.62042043  7.56677663
   8.09011322 12.58751899  4.94029447
   3.10263597 17.56407816  5.34066956
   3.11048730  1.69143001  3.49989252
   9.34354647  5.20196429  0.74623725
  20.52824696 19.09556365  4.83645578
   4.34917334  0.23266218  0.34634342
   8.10662048  6.65856793  3.89784324
   9.33029396 14.04551794  8.09365557
 


--------------------------------------------------------------------------------------------------------


 k-point  1 :   0.0000 0.0000 0.0000  plane waves:  151235
 k-point  2 :   0.0000-0.0000 0.3333  plane waves:  151021

 maximum and minimum number of plane-waves per node :     37875    37704

 maximum number of plane-waves:    151235
 maximum index in each direction: 
   IXMAX=   49   IYMAX=   49   IZMAX=   14
   IXMIN=  -49   IYMIN=  -49   IZMIN=  -14


 real space projection operators:
  total allocation   :      12242.87 KBytes
  max/ min on nodes  :       3094.34       3027.77


 parallel 3D FFT for wavefunctions:
    minimum data exchange during FFTs selected (reduces bandwidth)
 parallel 3D FFT for charge:
    minimum data exchange during FFTs selected (reduces bandwidth)


 total amount of memory used by VASP MPI-rank0   109828. kBytes
=======================================================================

   base      :      30000. kBytes
   nonlr-proj:       6806. kBytes
   fftplans  :      11252. kBytes
   grid      :      31214. kBytes
   one-center:       1213. kBytes
   wavefun   :      29343. kBytes
 
     INWAV:  cpu time    0.0002: real time    0.0001
 Broyden mixing: mesh for mixing (old mesh)
   NGX = 99   NGY = 99   NGZ = 29
  (NGX  =300   NGY  =300   NGZ  = 96)
  gives a total of 284229 points

 initial charge density was supplied:
 charge density of overlapping atoms calculated
 number of electron     600.0000000 magnetization      -0.0000000
 keeping initial charge density in first step


--------------------------------------------------------------------------------------------------------


 Maximum index for non-local projection operator          708
 Maximum index for augmentation-charges          503 (set IRDMAX)


--------------------------------------------------------------------------------------------------------


 First call to EWALD:  gamma=   0.107
 Maximum number of real-space cells 2x 2x 6
 Maximum number of reciprocal cells 4x 4x 1

    FEWALD:  cpu time    0.0154: real time    0.0154


--------------------------------------- Iteration      1(   1)  ---------------------------------------


    POTLOK:  cpu time    0.4545: real time    0.5791
    SETDIJ:  cpu time    0.0751: real time    0.0751
     EDDAV:  cpu time   12.2156: real time   12.3722
       DOS:  cpu time    0.0081: real time    0.0087
    --------------------------------------------
      LOOP:  cpu time   12.7535: real time   13.0351

 eigenvalue-minimisations  :  3072
 total energy-change (2. order) : 0.5767059E+04  (-0.2569529E+05)
 number of electron     600.0000000 magnetization      -0.0000000
 augmentation part      600.0000000 magnetization      -0.0000000

 Free energy of the ion-electron system (eV)
  ---------------------------------------------------
  alpha Z        PSCENC =       391.56498666
  Ewald energy   TEWEN  =     41639.87233866
  -Hartree energ DENC   =    -64403.65960549
  -exchange      EXHF   =         0.00000000
  -V(xc)+E(xc)   XCENC  =      2062.22020541
  PAW double counting   =     21422.65208726   -21556.96843230
  entropy T*S    EENTRO =        -0.04475581
  eigenvalues    EBANDS =     -1604.18177121
  atomic energy  EATOM  =     27815.60422923
  Solvation  Ediel_sol  =         0.00000000
  ---------------------------------------------------
  free energy    TOTEN  =      5767.05928240 eV

  energy without entropy =     5767.10403821  energy(sigma->0) =     5767.08166031


--------------------------------------------------------------------------------------------------------




--------------------------------------- Iteration      1(   2)  ---------------------------------------


     EDDAV:  cpu time   17.2785: real time   17.3163
       DOS:  cpu time    0.0025: real time    0.0025
    --------------------------------------------
      LOOP:  cpu time   17.2810: real time   17.3188

 eigenvalue-minimisations  :  4576
 total energy-change (2. order) :-0.5920026E+04  (-0.5698962E+04)
 number of electron     600.0000000 magnetization      -0.0000000
 augmentation part      600.0000000 magnetization      -0.0000000

 Free energy of the ion-electron system (eV)
  ---------------------------------------------------
  alpha Z        PSCENC =       391.56498666
  Ewald energy   TEWEN  =     41639.87233866
  -Hartree energ DENC   =    -64403.65960549
  -exchange      EXHF   =         0.00000000
  -V(xc)+E(xc)   XCENC  =      2062.22020541
  PAW double counting   =     21422.65208726   -21556.96843230
  entropy T*S    EENTRO =        -0.02657367
  eigenvalues    EBANDS =     -7524.22586550
  atomic energy  EATOM  =     27815.60422923
  Solvation  Ediel_sol  =         0.00000000
  ---------------------------------------------------
  free energy    TOTEN  =      -152.96662975 eV

  energy without entropy =     -152.94005608  energy(sigma->0) =     -152.95334291


--------------------------------------------------------------------------------------------------------




--------------------------------------- Iteration      1(   3)  ---------------------------------------


     EDDAV:  cpu time   14.6400: real time   14.6570
       DOS:  cpu time    0.0027: real time    0.0027
    --------------------------------------------
      LOOP:  cpu time   14.6427: real time   14.6597

 eigenvalue-minimisations  :  3744
 total energy-change (2. order) :-0.1099902E+04  (-0.1090388E+04)
 number of electron     600.0000000 magnetization      -0.0000000
 augmentation part      600.0000000 magnetization      -0.0000000

 Free energy of the ion-electron system (eV)
  ---------------------------------------------------
  alpha Z        PSCENC =       391.56498666
  Ewald energy   TEWEN  =     41639.87233866
  -Hartree energ DENC   =    -64403.65960549
  -exchange      EXHF   =         0.00000000
  -V(xc)+E(xc)   XCENC  =      2062.22020541
  PAW double counting   =     21422.65208726   -21556.96843230
  entropy T*S    EENTRO =        -0.06784770
  eigenvalues    EBANDS =     -8624.08692325
  atomic energy  EATOM  =     27815.60422923
  Solvation  Ediel_sol  =         0.00000000
  ---------------------------------------------------
  free energy    TOTEN  =     -1252.86896153 eV

  energy without entropy =    -1252.80111382  energy(sigma->0) =    -1252.83503768


--------------------------------------------------------------------------------------------------------




--------------------------------------- Iteration      1(   4)  ---------------------------------------


     EDDAV:  cpu time   17.3821: real time   17.4043
       DOS:  cpu time    0.0024: real time    0.0024
    --------------------------------------------
      LOOP:  cpu time   17.3845: real time   17.4066

 eigenvalue-minimisations  :  4640
 total energy-change (2. order) :-0.4811144E+02  (-0.4772976E+02)
 number of electron     600.0000000 magnetization      -0.0000000
 augmentation part      600.0000000 magnetization      -0.0000000

 Free energy of the ion-electron system (eV)
  ---------------------------------------------------
  alpha Z        PSCENC =       391.56498666
  Ewald energy   TEWEN  =     41639.87233866
  -Hartree energ DENC   =    -64403.65960549
  -exchange      EXHF   =         0.00000000
  -V(xc)+E(xc)   XCENC  =      2062.22020541
  PAW double counting   =     21422.65208726   -21556.96843230
  entropy T*S    EENTRO =        -0.08678884
  eigenvalues    EBANDS =     -8672.17942489
  atomic energy  EATOM  =     27815.60422923
  Solvation  Ediel_sol  =         0.00000000
  ---------------------------------------------------
  free energy    TOTEN  =     -1300.98040431 eV

  energy without entropy =    -1300.89361547  energy(sigma->0) =    -1300.93700989


--------------------------------------------------------------------------------------------------------




--------------------------------------- Iteration      1(   5)  ---------------------------------------


     EDDAV:  cpu time   15.0756: real time   15.0980
       DOS:  cpu time    0.0024: real time    0.0024
    --------------------------------------------
      LOOP:  cpu time   15.0780: real time   15.1005

 eigenvalue-minimisations  :  3840
 total energy-change (2. order) :-0.7126382E+00  (-0.7068448E+00)
 number of electron     600.0000000 magnetization      -0.0000000
 augmentation part      600.0000000 magnetization      -0.0000000

 Free energy of the ion-electron system (eV)
  ---------------------------------------------------
  alpha Z        PSCENC =       391.56498666
  Ewald energy   TEWEN  =     41639.87233866
  -Hartree energ DENC   =    -64403.65960549
  -exchange      EXHF   =         0.00000000
  -V(xc)+E(xc)   XCENC  =      2062.22020541
  PAW double counting   =     21422.65208726   -21556.96843230
  entropy T*S    EENTRO =        -0.08744051
  eigenvalues    EBANDS =     -8672.89141143
  atomic energy  EATOM  =     27815.60422923
  Solvation  Ediel_sol  =         0.00000000
  ---------------------------------------------------
  free energy    TOTEN  =     -1301.69304252 eV

  energy without entropy =    -1301.60560201  energy(sigma->0) =    -1301.64932226


--------------------------------------------------------------------------------------------------------




--------------------------------------- Iteration      1(   6)  ---------------------------------------


     EDDAV:  cpu time   18.2989: real time   18.3204
       DOS:  cpu time    0.0024: real time    0.0024
    --------------------------------------------
      LOOP:  cpu time   18.3013: real time   18.3229

 eigenvalue-minimisations  :  4832
 total energy-change (2. order) :-0.4669630E-01  (-0.4658807E-01)
 number of electron     600.0000000 magnetization      -0.0000000
 augmentation part      600.0000000 magnetization      -0.0000000

 Free energy of the ion-electron system (eV)
  ---------------------------------------------------
  alpha Z        PSCENC =       391.56498666
  Ewald energy   TEWEN  =     41639.87233866
  -Hartree energ DENC   =    -64403.65960549
  -exchange      EXHF   =         0.00000000
  -V(xc)+E(xc)   XCENC  =      2062.22020541
  PAW double counting   =     21422.65208726   -21556.96843230
  entropy T*S    EENTRO =        -0.08751467
  eigenvalues    EBANDS =     -8672.93803357
  atomic energy  EATOM  =     27815.60422923
  Solvation  Ediel_sol  =         0.00000000
  ---------------------------------------------------
  free energy    TOTEN  =     -1301.73973881 eV

  energy without entropy =    -1301.65222415  energy(sigma->0) =    -1301.69598148


--------------------------------------------------------------------------------------------------------




--------------------------------------- Iteration      1(   7)  ---------------------------------------


     EDDAV:  cpu time   15.3535: real time   15.3737
       DOS:  cpu time    0.0025: real time    0.0025
    --------------------------------------------
      LOOP:  cpu time   15.3560: real time   15.3762

 eigenvalue-minimisations  :  3936
 total energy-change (2. order) :-0.1251512E-02  (-0.1248487E-02)
 number of electron     600.0000000 magnetization      -0.0000000
 augmentation part      600.0000000 magnetization      -0.0000000

 Free energy of the ion-electron system (eV)
  ---------------------------------------------------
  alpha Z        PSCENC =       391.56498666
  Ewald energy   TEWEN  =     41639.87233866
  -Hartree energ DENC   =    -64403.65960549
  -exchange      EXHF   =         0.00000000
  -V(xc)+E(xc)   XCENC  =      2062.22020541
  PAW double counting   =     21422.65208726   -21556.96843230
  entropy T*S    EENTRO =        -0.08752767
  eigenvalues    EBANDS =     -8672.93927208
  atomic energy  EATOM  =     27815.60422923
  Solvation  Ediel_sol  =         0.00000000
  ---------------------------------------------------
  free energy    TOTEN  =     -1301.74099033 eV

  energy without entropy =    -1301.65346266  energy(sigma->0) =    -1301.69722649


--------------------------------------------------------------------------------------------------------




--------------------------------------- Iteration      1(   8)  ---------------------------------------


     EDDAV:  cpu time   18.4390: real time   18.4666
       DOS:  cpu time    0.0024: real time    0.0024
    CHARGE:  cpu time    0.7548: real time    0.7651
    MIXING:  cpu time    0.0179: real time    0.0201
    --------------------------------------------
      LOOP:  cpu time   19.2142: real time   19.2543

 eigenvalue-minimisations  :  4864
 total energy-change (2. order) :-0.4508007E-04  (-0.4504022E-04)
 number of electron     600.0000066 magnetization       0.0006804
 augmentation part       32.5465429 magnetization      -0.0025282

 Broyden mixing:
  rms(total) = 0.95063E+01    rms(broyden)= 0.95058E+01
  rms(prec ) = 0.10440E+02
  weight for this iteration     100.00

 Free energy of the ion-electron system (eV)
  ---------------------------------------------------
  alpha Z        PSCENC =       391.56498666
  Ewald energy   TEWEN  =     41639.87233866
  -Hartree energ DENC   =    -64403.65960549
  -exchange      EXHF   =         0.00000000
  -V(xc)+E(xc)   XCENC  =      2062.22020541
  PAW double counting   =     21422.65208726   -21556.96843230
  entropy T*S    EENTRO =        -0.08752777
  eigenvalues    EBANDS =     -8672.93931706
  atomic energy  EATOM  =     27815.60422923
  Solvation  Ediel_sol  =         0.00000000
  ---------------------------------------------------
  free energy    TOTEN  =     -1301.74103541 eV

  energy without entropy =    -1301.65350763  energy(sigma->0) =    -1301.69727152


--------------------------------------------------------------------------------------------------------




--------------------------------------- Iteration      1(   9)  ---------------------------------------


    POTLOK:  cpu time    0.4055: real time    0.4055
    SETDIJ:  cpu time    0.0593: real time    0.0593
     EDDAV:  cpu time   18.0872: real time   18.1215
       DOS:  cpu time    0.0081: real time    0.0082
    CHARGE:  cpu time    0.6997: real time    0.7045
    MIXING:  cpu time    0.0133: real time    0.0233
    --------------------------------------------
      LOOP:  cpu time   19.2732: real time   19.3224

 eigenvalue-minimisations  :  4736
 total energy-change (2. order) :-0.3149610E+03  (-0.3751820E+03)
 number of electron     600.0000119 magnetization      -0.0067428
 augmentation part       56.1449682 magnetization       0.5429317

 Broyden mixing:
  rms(total) = 0.31908E+02    rms(broyden)= 0.31908E+02
  rms(prec ) = 0.32314E+02
  weight for this iteration     100.00

 eigenvalues of (default mixing * dielectric matrix)
  average eigenvalue GAMMA=   0.0949
  0.0949

 Free energy of the ion-electron system (eV)
  ---------------------------------------------------
  alpha Z        PSCENC =       391.56498666
  Ewald energy   TEWEN  =     41639.87233866
  -Hartree energ DENC   =    -64791.38985784
  -exchange      EXHF   =         0.00000000
  -V(xc)+E(xc)   XCENC  =      2100.10907046
  PAW double counting   =     32135.33028959   -32230.27481154
[...]
     14.93470     11.77690      4.25587         0.001506      0.001245     -0.001443
     14.44828      7.20522      7.60992         0.001885     -0.002050      0.001502
     22.87953     24.41035      5.82296         0.002430     -0.002024     -0.002601
     14.94574      7.50511      4.59428         0.002177     -0.002174      0.000915
     10.43600     11.99400      4.89580        -0.002436      0.001485     -0.001237
      2.00177     19.61576      8.53636        -0.001112      0.002591      0.007395
     22.38390     19.97903      1.86222         0.003831      0.004156     -0.001414
     23.63044     23.22607      2.90579        -0.001397      0.006731      0.001267
     23.79049     23.28274      4.27388        -0.006823      0.001292      0.000316
     23.62882     20.87219      7.79040         0.000689     -0.004622     -0.002455
     13.69426     10.75192      5.64102        -0.001009     -0.002763     -0.004495
     13.53757      8.45685      1.83903         0.000902     -0.002686     -0.005227
      1.09088     20.86714      2.76636         0.007492     -0.002891      0.001956
     13.53278     10.80816      7.00860         0.000253      0.002049      0.007754
     13.69927      8.51839      3.20641        -0.001231      0.002465      0.001123
     11.34624     10.86530      3.34815        -0.001276      0.000404      0.004296
      1.24976     20.92432      4.13450         0.002422     -0.004978     -0.001079
      1.09330     23.21924      7.93484         0.006444      0.002584     -0.002064
     11.35217      8.39142      5.49615        -0.000294      0.000312     -0.007438
     23.78880     20.81064      6.42256        -0.008349     -0.001623      0.001350
      1.25360     23.15999      6.56686         0.001014      0.004183     -0.001094
     11.19152      8.44737      6.86373         0.000816      0.001141      0.008859
     11.18581     10.80658      1.98042         0.000641     -0.000204     -0.003860
     21.19025      0.94355      1.92339        -0.001893      0.001836      0.000997
     21.17964     18.33205      6.91916        -0.003059     -0.003980      0.000287
     16.13049     13.30232      6.52161         0.001788      0.004582     -0.002599
     16.14772      5.97771      2.33184        -0.001507     -0.000897      0.000697
      3.69154     18.37852      3.25865         0.001307     -0.003232      0.004590
      8.74116     13.35040      2.85698        -0.002016      0.002635      0.001077
      3.69973      0.87423      5.58051         0.003458      0.003815     -0.001402
      8.75427      5.89795      5.98302        -0.000950     -0.001849      0.000223
     20.53832      0.17862      4.00571         0.000272      0.002401      0.001404
     21.78065      1.63939      7.16094         0.000594      0.003166     -0.004495
     21.76325     17.64641      1.68740         0.001299     -0.003634      0.004918
     15.53953     14.11986      4.44124        -0.000703     -0.001065     -0.001453
     15.56496      5.16688      4.41686        -0.002526      0.000483      0.002588
      4.34239     19.02015      8.49337         0.001541      0.000069     -0.002767
     16.77821     12.66772      1.29074        -0.001376      0.000104      0.002372
     16.79802      6.62042      7.56678        -0.001281      0.002315     -0.001872
      8.09011     12.58752      4.94029         0.002282     -0.002322      0.003394
      3.10264     17.56408      5.34067         0.002980     -0.002451      0.001212
      3.11049      1.69143      3.49989         0.001565      0.002324     -0.002014
      9.34355      5.20196      0.74624         0.000505     -0.000173      0.001984
     20.52825     19.09556      4.83646        -0.002403     -0.003773     -0.000020
      4.34917      0.23266      0.34634         0.001002     -0.001737      0.008740
      8.10662      6.65857      3.89784        -0.000117      0.003001     -0.003962
      9.33029     14.04552      8.09366         0.000057      0.000206      0.000091
 -----------------------------------------------------------------------------------
    total drift:                                0.004043      0.044793      0.042155


--------------------------------------------------------------------------------------------------------



  FREE ENERGIE OF THE ION-ELECTRON SYSTEM (eV)
  ---------------------------------------------------
  free  energy   TOTEN  =     -1184.60978134 eV

  energy  without entropy=    -1184.56318186  energy(sigma->0) =    -1184.58648160
 


--------------------------------------------------------------------------------------------------------


    POTLOK:  cpu time    0.4860: real time    0.4870


--------------------------------------------------------------------------------------------------------




--------------------------------------------------------------------------------------------------------


  
 reached required accuracy - stopping structural energy minimisation
 writing wavefunctions
     LOOP+:  cpu time 1515.3843: real time 1534.5233
    4ORBIT:  cpu time    0.0000: real time    0.0000
 


 total charge     
 
# of ion       s       p       d       tot
------------------------------------------
    1        0.868   1.763   0.000   2.631
    2        0.868   1.764   0.000   2.632
    3        0.868   1.763   0.000   2.631
    4        0.868   1.763   0.000   2.631
    5        0.868   1.764   0.000   2.632
    6        0.868   1.764   0.000   2.632
    7        0.868   1.764   0.000   2.632
    8        0.868   1.763   0.000   2.631
    9        0.868   1.764   0.000   2.632
   10        0.868   1.763   0.000   2.631
   11        0.868   1.764   0.000   2.632
   12        0.869   1.764   0.000   2.632
   13        0.868   1.764   0.000   2.632
   14        0.868   1.763   0.000   2.631
   15        0.868   1.763   0.000   2.631
   16        0.868   1.763   0.000   2.631
   17        0.862   1.714   0.000   2.575
   18        0.862   1.714   0.000   2.576
   19        0.862   1.714   0.000   2.576
   20        0.862   1.714   0.000   2.576
   21        0.862   1.714   0.000   2.576
   22        0.862   1.714   0.000   2.575
   23        0.862   1.714   0.000   2.575
   24        0.862   1.714   0.000   2.575
   25        0.862   1.714   0.000   2.575
   26        0.862   1.714   0.000   2.576
   27        0.862   1.714   0.000   2.576
   28        0.862   1.714   0.000   2.575
   29        0.862   1.714   0.000   2.575
   30        0.862   1.714   0.000   2.575
   31        0.862   1.714   0.000   2.575
   32        0.862   1.714   0.000   2.576
   33        0.865   1.784   0.000   2.649
   34        0.865   1.784   0.000   2.649
   35        0.864   1.784   0.000   2.649
   36        0.865   1.784   0.000   2.649
   37        0.864   1.784   0.000   2.649
   38        0.865   1.784   0.000   2.649
   39        0.865   1.784   0.000   2.648
   40        0.864   1.784   0.000   2.648
   41        0.865   1.784   0.000   2.648
   42        0.864   1.784   0.000   2.649
   43        0.864   1.784   0.000   2.649
   44        0.864   1.784   0.000   2.648
   45        0.864   1.784   0.000   2.648
   46        0.865   1.784   0.000   2.649
   47        0.865   1.784   0.000   2.648
   48        0.865   1.784   0.000   2.649
   49        0.870   1.764   0.000   2.634
   50        0.869   1.764   0.000   2.634
   51        0.869   1.764   0.000   2.634
   52        0.869   1.764   0.000   2.634
   53        0.870   1.764   0.000   2.634
   54        0.869   1.764   0.000   2.634
   55        0.870   1.764   0.000   2.634
   56        0.869   1.764   0.000   2.634
   57        0.870   1.764   0.000   2.634
   58        0.869   1.764   0.000   2.634
   59        0.869   1.764   0.000   2.634
   60        0.869   1.764   0.000   2.634
   61        0.869   1.764   0.000   2.633
   62        0.870   1.764   0.000   2.634
   63        0.869   1.764   0.000   2.634
   64        0.869   1.764   0.000   2.634
   65        0.844   1.780   0.000   2.625
   66        0.844   1.781   0.000   2.625
   67        0.844   1.780   0.000   2.624
   68        0.844   1.780   0.000   2.624
   69        0.844   1.781   0.000   2.625
   70        0.844   1.780   0.000   2.624
   71        0.844   1.781   0.000   2.625
   72        0.844   1.780   0.000   2.624
   73        0.866   1.792   0.000   2.658
   74        0.866   1.792   0.000   2.658
   75        0.866   1.792   0.000   2.658
   76        0.866   1.792   0.000   2.658
   77        0.866   1.792   0.000   2.658
   78        0.866   1.792   0.000   2.658
   79        0.866   1.792   0.000   2.658
   80        0.866   1.792   0.000   2.658
   81        0.374   0.479   6.042   6.895
   82        0.374   0.479   6.042   6.895
   83        0.374   0.478   6.042   6.894
   84        0.374   0.478   6.042   6.894
   85        0.638   0.048   0.000   0.686
   86        0.638   0.048   0.000   0.686
   87        0.638   0.048   0.000   0.686
   88        0.638   0.048   0.000   0.686
   89        0.638   0.048   0.000   0.686
   90        0.638   0.048   0.000   0.686
   91        0.638   0.048   0.000   0.686
   92        0.638   0.048   0.000   0.686
   93        0.638   0.048   0.000   0.686
   94        0.638   0.048   0.000   0.686
   95        0.638   0.048   0.000   0.686
   96        0.638   0.048   0.000   0.686
   97        0.638   0.048   0.000   0.686
   98        0.638   0.048   0.000   0.686
   99        0.638   0.048   0.000   0.686
  100        0.638   0.048   0.000   0.686
  101        0.638   0.050   0.000   0.688
  102        0.638   0.050   0.000   0.688
  103        0.637   0.050   0.000   0.687
  104        0.637   0.050   0.000   0.687
  105        0.638   0.050   0.000   0.688
  106        0.637   0.050   0.000   0.687
  107        0.637   0.050   0.000   0.686
  108        0.638   0.050   0.000   0.688
  109        0.637   0.050   0.000   0.687
  110        0.637   0.050   0.000   0.687
  111        0.638   0.050   0.000   0.688
  112        0.638   0.050   0.000   0.688
  113        0.637   0.050   0.000   0.687
  114        0.638   0.050   0.000   0.688
  115        0.638   0.050   0.000   0.688
  116        0.637   0.050   0.000   0.687
  117        1.235   2.600   0.000   3.835
  118        1.235   2.601   0.000   3.837
  119        1.235   2.601   0.000   3.836
  120        1.235   2.601   0.000   3.836
  121        1.235   2.602   0.000   3.837
  122        1.235   2.601   0.000   3.837
  123        1.235   2.601   0.000   3.837
  124        1.235   2.601   0.000   3.836
  125        1.235   2.601   0.000   3.837
  126        1.235   2.601   0.000   3.836
  127        1.235   2.601   0.000   3.837
  128        1.235   2.602   0.000   3.837
  129        1.235   2.601   0.000   3.837
  130        1.235   2.600   0.000   3.835
  131        1.235   2.601   0.000   3.836
  132        1.235   2.601   0.000   3.836
  133        1.209   2.712   0.000   3.920
  134        1.209   2.712   0.000   3.920
  135        1.209   2.711   0.000   3.920
  136        1.209   2.711   0.000   3.920
  137        1.209   2.712   0.000   3.920
  138        1.209   2.711   0.000   3.920
  139        1.209   2.712   0.000   3.920
  140        1.209   2.711   0.000   3.920
  141        1.585   3.539   0.000   5.125
  142        1.585   3.539   0.000   5.125
  143        1.585   3.539   0.000   5.125
  144        1.585   3.539   0.000   5.125
  145        1.585   3.539   0.000   5.125
  146        1.585   3.540   0.000   5.125
  147        1.585   3.540   0.000   5.125
  148        1.585   3.539   0.000   5.125
  149        1.585   3.540   0.000   5.125
  150        1.585   3.539   0.000   5.124
  151        1.585   3.539   0.000   5.124
  152        1.585   3.539   0.000   5.124
  153        1.585   3.539   0.000   5.125
  154        1.585   3.540   0.000   5.125
  155        1.585   3.540   0.000   5.125
  156        1.585   3.539   0.000   5.124
--------------------------------------------------
tot        145.798 264.407  24.167 434.372
 


 magnetization (x)
 
# of ion       s       p       d       tot
------------------------------------------
    1        0.003   0.023   0.000   0.026
    2        0.003   0.024   0.000   0.027
    3        0.003   0.023   0.000   0.026
    4       -0.003  -0.023   0.000  -0.026
    5       -0.003  -0.024   0.000  -0.027
    6        0.003   0.024   0.000   0.027
    7       -0.003  -0.024   0.000  -0.027
    8       -0.003  -0.023   0.000  -0.026
    9       -0.003  -0.024   0.000  -0.027
   10        0.003   0.023   0.000   0.026
   11        0.003   0.024   0.000   0.027
   12       -0.003  -0.024   0.000  -0.027
   13        0.003   0.024   0.000   0.027
   14        0.003   0.023   0.000   0.026
   15       -0.003  -0.023   0.000  -0.026
   16       -0.003  -0.023   0.000  -0.026
   17        0.000   0.001   0.000   0.001
   18        0.000   0.001   0.000   0.001
   19        0.000   0.001   0.000   0.001
   20       -0.000  -0.001   0.000  -0.001
   21       -0.000  -0.001   0.000  -0.001
   22        0.000   0.001   0.000   0.001
   23       -0.000  -0.001   0.000  -0.001
   24       -0.000  -0.001   0.000  -0.001
   25       -0.000  -0.001   0.000  -0.001
   26        0.000   0.001   0.000   0.001
   27        0.000   0.001   0.000   0.001
   28       -0.000  -0.001   0.000  -0.001
   29        0.000   0.001   0.000   0.001
   30        0.000   0.001   0.000   0.001
   31       -0.000  -0.001   0.000  -0.001
   32       -0.000  -0.001   0.000  -0.001
   33       -0.000  -0.000   0.000  -0.000
   34       -0.000  -0.000   0.000  -0.000
   35       -0.000  -0.000   0.000  -0.000
   36        0.000   0.000   0.000   0.000
   37        0.000   0.000   0.000   0.000
   38       -0.000  -0.000   0.000  -0.000
   39        0.000   0.000   0.000   0.000
   40        0.000   0.000   0.000   0.000
   41        0.000   0.000   0.000   0.000
   42       -0.000  -0.000   0.000  -0.000
   43       -0.000  -0.000   0.000  -0.000
   44        0.000   0.000   0.000   0.000
   45       -0.000  -0.000   0.000  -0.000
   46       -0.000  -0.000   0.000  -0.000
   47        0.000   0.000   0.000   0.000
   48        0.000   0.000   0.000   0.000
   49        0.000   0.000   0.000   0.000
   50        0.000   0.000   0.000   0.000
   51        0.000   0.000   0.000   0.000
   52       -0.000  -0.000   0.000  -0.000
   53       -0.000  -0.000   0.000  -0.000
   54        0.000   0.000   0.000   0.000
   55       -0.000  -0.000   0.000  -0.000
   56       -0.000  -0.000   0.000  -0.000
   57       -0.000  -0.000   0.000  -0.000
   58        0.000   0.000   0.000   0.000
   59        0.000   0.000   0.000   0.000
   60       -0.000  -0.000   0.000  -0.000
   61        0.000   0.000   0.000   0.000
   62        0.000   0.000   0.000   0.000
   63       -0.000  -0.000   0.000  -0.000
   64       -0.000  -0.000   0.000  -0.000
   65        0.001   0.010   0.000   0.011
   66        0.001   0.010   0.000   0.011
   67       -0.001  -0.010   0.000  -0.011
   68       -0.001  -0.010   0.000  -0.011
   69        0.001   0.010   0.000   0.011
   70       -0.001  -0.010   0.000  -0.011
   71        0.001   0.010   0.000   0.011
   72       -0.001  -0.010   0.000  -0.011
   73        0.000   0.000   0.000   0.000
   74        0.000   0.000   0.000   0.000
   75       -0.000  -0.000   0.000  -0.000
   76       -0.000  -0.000   0.000  -0.000
   77        0.000   0.000   0.000   0.000
   78       -0.000  -0.000   0.000  -0.000
   79        0.000   0.000   0.000   0.000
   80       -0.000  -0.000   0.000  -0.000
   81        0.019   0.087   3.397   3.503
   82        0.019   0.087   3.397   3.503
   83       -0.019  -0.087  -3.397  -3.503
   84       -0.019  -0.087  -3.397  -3.503
   85        0.000  -0.000   0.000   0.000
   86        0.000  -0.000   0.000   0.000
   87        0.000  -0.000   0.000   0.000
   88       -0.000   0.000   0.000  -0.000
   89       -0.000   0.000   0.000  -0.000
   90        0.000  -0.000   0.000   0.000
   91       -0.000   0.000   0.000  -0.000
   92       -0.000   0.000   0.000  -0.000
   93       -0.000   0.000   0.000  -0.000
   94        0.000  -0.000   0.000   0.000
   95        0.000  -0.000   0.000   0.000
   96       -0.000   0.000   0.000  -0.000
   97        0.000  -0.000   0.000   0.000
   98        0.000  -0.000   0.000   0.000
   99       -0.000   0.000   0.000  -0.000
  100       -0.000   0.000   0.000  -0.000
  101       -0.000  -0.000   0.000  -0.001
  102       -0.000  -0.000   0.000  -0.001
  103       -0.000  -0.000   0.000  -0.001
  104        0.000   0.000   0.000   0.001
  105        0.000   0.000   0.000   0.001
  106       -0.000  -0.000   0.000  -0.001
  107        0.000   0.000   0.000   0.001
  108        0.000   0.000   0.000   0.001
  109        0.000   0.000   0.000   0.001
  110       -0.000  -0.000   0.000  -0.001
  111       -0.000  -0.000   0.000  -0.001
  112        0.000   0.000   0.000   0.001
  113       -0.000  -0.000   0.000  -0.001
  114       -0.000  -0.000   0.000  -0.001
  115        0.000   0.000   0.000   0.001
  116        0.000   0.000   0.000   0.001
  117        0.010   0.034   0.000   0.044
  118        0.010   0.034   0.000   0.045
  119        0.010   0.035   0.000   0.045
  120       -0.010  -0.034   0.000  -0.044
  121       -0.010  -0.034   0.000  -0.045
  122        0.010   0.034   0.000   0.045
  123       -0.010  -0.034   0.000  -0.045
  124       -0.010  -0.035   0.000  -0.044
  125       -0.010  -0.034   0.000  -0.045
  126        0.010   0.035   0.000   0.044
  127        0.010   0.034   0.000   0.045
  128       -0.010  -0.034   0.000  -0.045
  129        0.010   0.034   0.000   0.045
  130        0.010   0.034   0.000   0.044
  131       -0.010  -0.034   0.000  -0.044
  132       -0.010  -0.034   0.000  -0.044
  133        0.000   0.000   0.000   0.001
  134        0.000   0.000   0.000   0.001
  135       -0.000  -0.000   0.000  -0.001
  136       -0.000  -0.000   0.000  -0.001
  137        0.000   0.000   0.000   0.001
  138       -0.000  -0.000   0.000  -0.001
  139        0.000   0.000   0.000   0.001
  140       -0.000  -0.000   0.000  -0.001
  141        0.000   0.002   0.000   0.002
  142        0.000   0.002   0.000   0.002
  143        0.000   0.002   0.000   0.002
  144       -0.000  -0.002   0.000  -0.002
  145       -0.000  -0.002   0.000  -0.002
  146        0.000   0.002   0.000   0.002
  147       -0.000  -0.002   0.000  -0.002
  148       -0.000  -0.002   0.000  -0.002
  149       -0.000  -0.002   0.000  -0.002
  150        0.000   0.002   0.000   0.002
  151        0.000   0.002   0.000   0.002
  152       -0.000  -0.002   0.000  -0.002
  153        0.000   0.002   0.000   0.002
  154        0.000   0.002   0.000   0.002
  155       -0.000  -0.002   0.000  -0.002
  156       -0.000  -0.002   0.000  -0.002
--------------------------------------------------
tot          0.000   0.001  -0.000   0.000
 

 total amount of memory used by VASP MPI-rank0   109828. kBytes
=======================================================================

   base      :      30000. kBytes
   nonlr-proj:       6806. kBytes
   fftplans  :      11252. kBytes
   grid      :      31214. kBytes
   one-center:       1213. kBytes
   wavefun   :      29343. kBytes
 
  
  
 General timing and accounting informations for this job:
 ========================================================
  
                  Total CPU time used (sec):     1728.611
                            User time (sec):     1594.556
                          System time (sec):      134.054
                         Elapsed time (sec):     1758.166
  
                   Maximum memory used (kb):      949624.
                   Average memory used (kb):           0.
  
                          Minor page faults:       249858
                          Major page faults:            8
                 Voluntary context switches:        52124
