       N       E                     dE             d eps       ncg     rms          rms(c)
DAV:   1     0.454848608184E+04    0.45485E+04   -0.29894E+05  9984   0.143E+03
DAV:   2    -0.680301562713E+03   -0.52288E+04   -0.49513E+04 12096   0.321E+02
DAV:   3    -0.127400105390E+04   -0.59370E+03   -0.58376E+03 12320   0.117E+02
DAV:   4    -0.129555333138E+04   -0.21552E+02   -0.21393E+02 14208   0.288E+01
DAV:   5    -0.129605741922E+04   -0.50409E+00   -0.50312E+00 13664   0.368E+00
DAV:   6    -0.129608574167E+04   -0.28322E-01   -0.28312E-01 14976   0.968E-01
DAV:   7    -0.129608632911E+04   -0.58745E-03   -0.58714E-03 13824   0.108E-01
DAV:   8    -0.129608635262E+04   -0.23506E-04   -0.23493E-04 14880   0.201E-02    0.886E+01
DAV:   9    -0.159743287037E+04   -0.30135E+03   -0.22910E+03 15552   0.771E+01    0.320E+02
DAV:  10    -0.150975937838E+04    0.87673E+02   -0.20889E+02 12640   0.269E+01    0.211E+02
DAV:  11    -0.116027705721E+04    0.34948E+03   -0.39708E+02 14816   0.958E+01    0.418E+01
DAV:  12    -0.117460548564E+04   -0.14328E+02   -0.84916E+01 12288   0.125E+01    0.263E+01
DAV:  13    -0.119882119053E+04   -0.24216E+02   -0.24905E+02 14528   0.272E+01    0.669E+01
DAV:  14    -0.117587433531E+04    0.22947E+02   -0.17784E+02 13504   0.362E+01    0.271E+01
DAV:  15    -0.117403414165E+04    0.18402E+01   -0.54474E+01 14496   0.173E+01    0.219E+01
DAV:  16    -0.117319515205E+04    0.83899E+00   -0.14799E+01 13888   0.727E+00    0.131E+01
DAV:  17    -0.117356789637E+04   -0.37274E+00   -0.58676E+00 13952   0.561E+00    0.143E+01
DAV:  18    -0.117382189223E+04   -0.25400E+00   -0.81683E+00 13696   0.562E+00    0.149E+01
DAV:  19    -0.117333174744E+04    0.49014E+00   -0.31502E+00 14304   0.461E+00    0.649E+00
DAV:  20    -0.117347107406E+04   -0.13933E+00   -0.79421E-01 12896   0.181E+00    0.502E+00
DAV:  21    -0.117359157003E+04   -0.12050E+00   -0.22277E+00 13504   0.194E+00    0.504E+00
DAV:  22    -0.117343780843E+04    0.15376E+00   -0.24581E-01 13728   0.144E+00    0.382E+00
DAV:  23    -0.117347871783E+04   -0.40909E-01   -0.35086E-01 14144   0.859E-01    0.330E+00
DAV:  24    -0.117352049917E+04   -0.41781E-01   -0.38677E-01 12416   0.712E-01    0.274E+00
DAV:  25    -0.117355276324E+04   -0.32264E-01   -0.11871E-01 12544   0.457E-01    0.236E+00
DAV:  26    -0.117359373811E+04   -0.40975E-01   -0.81184E-02 12736   0.426E-01    0.185E+00
DAV:  27    -0.117363217281E+04   -0.38435E-01   -0.31101E-02 11776   0.266E-01    0.138E+00
DAV:  28    -0.117367278058E+04   -0.40608E-01   -0.95300E-03 11840   0.196E-01    0.961E-01
DAV:  29    -0.117370472017E+04   -0.31940E-01   -0.47044E-03 12000   0.130E-01    0.732E-01
DAV:  30    -0.117372426223E+04   -0.19542E-01   -0.21747E-03 12128   0.919E-02    0.536E-01
DAV:  31    -0.117373670179E+04   -0.12440E-01   -0.13901E-03 11456   0.595E-02    0.395E-01
DAV:  32    -0.117374317351E+04   -0.64717E-02   -0.10122E-03 11584   0.533E-02    0.283E-01
DAV:  33    -0.117374566316E+04   -0.24896E-02   -0.28664E-04 11776   0.285E-02    0.208E-01
DAV:  34    -0.117374708985E+04   -0.14267E-02   -0.14656E-04 11104   0.203E-02    0.133E-01
DAV:  35    -0.117374777527E+04   -0.68542E-03   -0.97490E-05 11648   0.206E-02    0.541E-02
DAV:  36    -0.117374792893E+04   -0.15367E-03   -0.69773E-05 12128   0.157E-02    0.277E-02
DAV:  37    -0.117374794056E+04   -0.11627E-04   -0.70377E-05 12480   0.135E-02    0.563E-02
DAV:  38    -0.117374804169E+04   -0.10112E-03   -0.33484E-05 12192   0.102E-02    0.804E-02
DAV:  39    -0.117374815163E+04   -0.10994E-03   -0.20871E-05 11552   0.872E-03    0.792E-02
DAV:  40    -0.117374830517E+04   -0.15354E-03   -0.99230E-06 10976   0.547E-03    0.754E-02
DAV:  41    -0.117374845794E+04   -0.15277E-03   -0.82931E-06 10464   0.600E-03    0.615E-02
DAV:  42    -0.117374855082E+04   -0.92882E-04   -0.69621E-06 10240   0.449E-03    0.423E-02
DAV:  43    -0.117374866161E+04   -0.11079E-03   -0.87838E-06 10304   0.406E-03    0.232E-02
DAV:  44    -0.117374874703E+04   -0.85423E-04   -0.87888E-06  9504   0.353E-03    0.737E-03
DAV:  45    -0.117374876925E+04   -0.22215E-04   -0.20953E-06  8864   0.210E-03    0.238E-03
DAV:  46    -0.117374877536E+04   -0.61160E-05   -0.44650E-07  7744   0.122E-03    0.188E-03
DAV:  47    -0.117374877822E+04   -0.28568E-05   -0.22991E-07  7648   0.804E-04    0.230E-03
DAV:  48    -0.117374877972E+04   -0.15005E-05   -0.17513E-07  7584   0.597E-04    0.323E-03
DAV:  49    -0.117374877999E+04   -0.27321E-06   -0.44148E-08  7648   0.393E-04
   1 F= -.11869199E+04 E0= -.11869059E+04  d E =-.118692E+04  mag=    16.6495
