 vasp.6.0.8 29Jun18 (build Mar 14 2019 11:44:20) complex                        
  
 executed on             LinuxIFC date 2020.12.27  18:09:15
 running  128 mpi-ranks, with    1 threads/rank
 distrk:  each k-point on  128 cores,    1 groups
 distr:  one band on NCORES_PER_BAND=   4 cores,   32 groups


--------------------------------------------------------------------------------------------------------


 INCAR:
 POTCAR:    PAW_PBE C 08Apr2002                   
 POTCAR:    PAW_PBE Fe 06Sep2000                  
 POTCAR:    PAW_PBE H 15Jun2001                   
 POTCAR:    PAW_PBE N 08Apr2002                   
 POTCAR:    PAW_PBE O 08Apr2002                   
 POTCAR:    PAW_PBE C 08Apr2002                   
   VRHFIN =C: s2p2                                                              
   LEXCH  = PE                                                                  
   EATOM  =   147.1560 eV,   10.8157 Ry                                         
                                                                                
   TITEL  = PAW_PBE C 08Apr2002                                                 
   LULTRA =        F    use ultrasoft PP ?                                      
   IUNSCR =        1    unscreen: 0-lin 1-nonlin 2-no                           
   RPACOR =    1.200    partial core radius                                     
   POMASS =   12.011; ZVAL   =    4.000    mass and valenz                      
   RCORE  =    1.500    outmost cutoff radius                                   
   RWIGS  =    1.630; RWIGS  =    0.863    wigner-seitz radius (au A)           
   ENMAX  =  400.000; ENMIN  =  300.000 eV                                      
   ICORE  =        2    local potential                                         
   LCOR   =        T    correct aug charges                                     
   LPAW   =        T    paw PP                                                  
   EAUG   =  644.873                                                            
   DEXC   =    0.000                                                            
   RMAX   =    1.529    core radius for proj-oper                               
   RAUG   =    1.300    factor for augmentation sphere                          
   RDEP   =    1.501    radius for radial grids                                 
   RDEPT  =    1.300    core radius for aug-charge                              
                                                                                
   Atomic configuration                                                         
    4 entries                                                                   
     n  l   j            E        occ.                                          
     1  0  0.50      -273.3789   2.0000                                         
     2  0  0.50       -13.7508   2.0000                                         
     2  1  0.50        -5.2854   2.0000                                         
     3  2  1.50        -5.4423   0.0000                                         
   Description                                                                  
     l       E           TYP  RCUT    TYP  RCUT                                 
     0    -13.7508458     23  1.200                                             
     0     -8.2022199     23  1.200                                             
     1     -5.2854383     23  1.500                                             
     1     34.0145650     23  1.500                                             
     2     -5.4423304      7  1.500                                             
  local pseudopotential read in
  partial core-charges read in
  partial kinetic energy density read in
  atomic valenz-charges read in
  non local Contribution for L=           0  read in
    real space projection operators read in
  non local Contribution for L=           0  read in
    real space projection operators read in
  non local Contribution for L=           1  read in
    real space projection operators read in
  non local Contribution for L=           1  read in
    real space projection operators read in
    PAW grid and wavefunctions read in
 
   number of l-projection  operators is LMAX  =           4
   number of lm-projection operators is LMMAX =           8
 
 POTCAR:    PAW_PBE Fe 06Sep2000                  
   VRHFIN =Fe:  d7 s1                                                           
   LEXCH  = PE                                                                  
   EATOM  =   594.3153 eV,   43.6809 Ry                                         
                                                                                
   TITEL  = PAW_PBE Fe 06Sep2000                                                
   LULTRA =        F    use ultrasoft PP ?                                      
   IUNSCR =        1    unscreen: 0-lin 1-nonlin 2-no                           
   RPACOR =    2.000    partial core radius                                     
   POMASS =   55.847; ZVAL   =    8.000    mass and valenz                      
   RCORE  =    2.300    outmost cutoff radius                                   
   RWIGS  =    2.460; RWIGS  =    1.302    wigner-seitz radius (au A)           
   ENMAX  =  267.882; ENMIN  =  200.911 eV                                      
   RCLOC  =    1.701    cutoff for local pot                                    
   LCOR   =        T    correct aug charges                                     
   LPAW   =        T    paw PP                                                  
   EAUG   =  511.368                                                            
   DEXC   =    0.000                                                            
   RMAX   =    2.356    core radius for proj-oper                               
   RAUG   =    1.300    factor for augmentation sphere                          
   RDEP   =    2.442    radius for radial grids                                 
   RDEPT  =    1.890    core radius for aug-charge                              
                                                                                
   Atomic configuration                                                         
    9 entries                                                                   
     n  l   j            E        occ.                                          
     1  0  0.50     -6993.8440   2.0000                                         
     2  0  0.50      -814.6047   2.0000                                         
     2  1  1.50      -693.3689   6.0000                                         
     3  0  0.50       -89.4732   2.0000                                         
     3  1  1.50       -55.6373   6.0000                                         
     3  2  2.50        -3.8151   7.0000                                         
     4  0  0.50        -4.2551   1.0000                                         
     4  1  1.50        -3.4015   0.0000                                         
     4  3  2.50        -1.3606   0.0000                                         
   Description                                                                  
     l       E           TYP  RCUT    TYP  RCUT                                 
     2     -3.8151135     23  2.300                                             
     2     -5.1756961     23  2.300                                             
     0     -4.2550963     23  2.300                                             
     0      7.2035603     23  2.300                                             
     1     -2.7211652     23  2.300                                             
     1     18.4316424     23  2.300                                             
  local pseudopotential read in
  partial core-charges read in
  partial kinetic energy density read in
  atomic valenz-charges read in
  non local Contribution for L=           2  read in
    real space projection operators read in
  non local Contribution for L=           2  read in
    real space projection operators read in
  non local Contribution for L=           0  read in
    real space projection operators read in
  non local Contribution for L=           0  read in
    real space projection operators read in
  non local Contribution for L=           1  read in
    real space projection operators read in
  non local Contribution for L=           1  read in
    real space projection operators read in
    PAW grid and wavefunctions read in
 
   number of l-projection  operators is LMAX  =           6
   number of lm-projection operators is LMMAX =          18
 
 POTCAR:    PAW_PBE H 15Jun2001                   
   VRHFIN =H: ultrasoft test                                                    
   LEXCH  = PE                                                                  
   EATOM  =    12.4884 eV,    0.9179 Ry                                         
                                                                                
   TITEL  = PAW_PBE H 15Jun2001                                                 
   LULTRA =        F    use ultrasoft PP ?                                      
   IUNSCR =        0    unscreen: 0-lin 1-nonlin 2-no                           
   RPACOR =    0.000    partial core radius                                     
   POMASS =    1.000; ZVAL   =    1.000    mass and valenz                      
   RCORE  =    1.100    outmost cutoff radius                                   
   RWIGS  =    0.700; RWIGS  =    0.370    wigner-seitz radius (au A)           
   ENMAX  =  250.000; ENMIN  =  200.000 eV                                      
   RCLOC  =    0.701    cutoff for local pot                                    
   LCOR   =        T    correct aug charges                                     
   LPAW   =        T    paw PP                                                  
   EAUG   =  400.000                                                            
   RMAX   =    1.123    core radius for proj-oper                               
   RAUG   =    1.200    factor for augmentation sphere                          
   RDEP   =    1.112    radius for radial grids                                 
   RDEPT  =    0.926    core radius for aug-charge                              
                                                                                
   Atomic configuration                                                         
    2 entries                                                                   
     n  l   j            E        occ.                                          
     1  0  0.50        -6.4927   1.0000                                         
     2  1  0.50        -3.4015   0.0000                                         
   Description                                                                  
     l       E           TYP  RCUT    TYP  RCUT                                 
     0     -6.4927494     23  1.100                                             
     0      6.8029130     23  1.100                                             
     1     -4.0817478     23  1.100                                             
  local pseudopotential read in
  atomic valenz-charges read in
  non local Contribution for L=           0  read in
    real space projection operators read in
  non local Contribution for L=           0  read in
    real space projection operators read in
  non local Contribution for L=           1  read in
    real space projection operators read in
    PAW grid and wavefunctions read in
 
   number of l-projection  operators is LMAX  =           3
   number of lm-projection operators is LMMAX =           5
 
 POTCAR:    PAW_PBE N 08Apr2002                   
   VRHFIN =N: s2p3                                                              
   LEXCH  = PE                                                                  
   EATOM  =   264.5486 eV,   19.4438 Ry                                         
                                                                                
   TITEL  = PAW_PBE N 08Apr2002                                                 
   LULTRA =        F    use ultrasoft PP ?                                      
   IUNSCR =        1    unscreen: 0-lin 1-nonlin 2-no                           
   RPACOR =    1.200    partial core radius                                     
   POMASS =   14.001; ZVAL   =    5.000    mass and valenz                      
   RCORE  =    1.500    outmost cutoff radius                                   
   RWIGS  =    1.400; RWIGS  =    0.741    wigner-seitz radius (au A)           
   ENMAX  =  400.000; ENMIN  =  300.000 eV                                      
   ICORE  =        2    local potential                                         
   LCOR   =        T    correct aug charges                                     
   LPAW   =        T    paw PP                                                  
   EAUG   =  627.112                                                            
   DEXC   =    0.000                                                            
   RMAX   =    1.529    core radius for proj-oper                               
   RAUG   =    1.300    factor for augmentation sphere                          
   RDEP   =    1.514    radius for radial grids                                 
   RDEPT  =    1.338    core radius for aug-charge                              
                                                                                
   Atomic configuration                                                         
    4 entries                                                                   
     n  l   j            E        occ.                                          
     1  0  0.50      -384.7179   2.0000                                         
     2  0  0.50       -18.5828   2.0000                                         
     2  1  0.50        -7.0898   3.0000                                         
     3  2  1.50        -6.8029   0.0000                                         
   Description                                                                  
     l       E           TYP  RCUT    TYP  RCUT                                 
     0    -18.5828119     23  1.200                                             
     0    -13.5018863     23  1.200                                             
     1     -7.0897853     23  1.500                                             
     1      9.5240782     23  1.500                                             
     2     -6.8029130      7  1.500                                             
  local pseudopotential read in
  partial core-charges read in
  partial kinetic energy density read in
  atomic valenz-charges read in
  non local Contribution for L=           0  read in
    real space projection operators read in
  non local Contribution for L=           0  read in
    real space projection operators read in
  non local Contribution for L=           1  read in
    real space projection operators read in
  non local Contribution for L=           1  read in
    real space projection operators read in
    PAW grid and wavefunctions read in
 
   number of l-projection  operators is LMAX  =           4
   number of lm-projection operators is LMMAX =           8
 
 POTCAR:    PAW_PBE O 08Apr2002                   
   VRHFIN =O: s2p4                                                              
   LEXCH  = PE                                                                  
   EATOM  =   432.3788 eV,   31.7789 Ry                                         
                                                                                
   TITEL  = PAW_PBE O 08Apr2002                                                 
   LULTRA =        F    use ultrasoft PP ?                                      
   IUNSCR =        1    unscreen: 0-lin 1-nonlin 2-no                           
   RPACOR =    1.200    partial core radius                                     
   POMASS =   16.000; ZVAL   =    6.000    mass and valenz                      
   RCORE  =    1.520    outmost cutoff radius                                   
   RWIGS  =    1.550; RWIGS  =    0.820    wigner-seitz radius (au A)           
   ENMAX  =  400.000; ENMIN  =  300.000 eV                                      
   ICORE  =        2    local potential                                         
   LCOR   =        T    correct aug charges                                     
   LPAW   =        T    paw PP                                                  
   EAUG   =  605.392                                                            
   DEXC   =    0.000                                                            
   RMAX   =    1.553    core radius for proj-oper                               
   RAUG   =    1.300    factor for augmentation sphere                          
   RDEP   =    1.550    radius for radial grids                                 
   RDEPT  =    1.329    core radius for aug-charge                              
                                                                                
   Atomic configuration                                                         
    4 entries                                                                   
     n  l   j            E        occ.                                          
     1  0  0.50      -514.6923   2.0000                                         
     2  0  0.50       -23.9615   2.0000                                         
     2  1  0.50        -9.0305   4.0000                                         
     3  2  1.50        -9.5241   0.0000                                         
   Description                                                                  
     l       E           TYP  RCUT    TYP  RCUT                                 
     0    -23.9615318     23  1.200                                             
     0     -9.5240782     23  1.200                                             
     1     -9.0304911     23  1.520                                             
     1      8.1634956     23  1.520                                             
     2     -9.5240782      7  1.500                                             
  local pseudopotential read in
  partial core-charges read in
  partial kinetic energy density read in
  kinetic energy density of atom read in
  atomic valenz-charges read in
  non local Contribution for L=           0  read in
    real space projection operators read in
  non local Contribution for L=           0  read in
    real space projection operators read in
  non local Contribution for L=           1  read in
    real space projection operators read in
  non local Contribution for L=           1  read in
    real space projection operators read in
    PAW grid and wavefunctions read in
 
   number of l-projection  operators is LMAX  =           4
   number of lm-projection operators is LMMAX =           8
 
 Optimization of the real space projectors (new method)

 maximal supplied QI-value         = 25.13
 optimisation between [QCUT,QGAM] = [ 12.32, 24.88] = [ 42.47,173.37] Ry 
 Optimized for a Real-space Cutoff    1.06 Angstroem

   l    n(q)    QCUT    max X(q) W(low)/X(q) W(high)/X(q)  e(spline) 
   0      8    12.315   115.676    0.34E-03    0.18E-03    0.23E-06
   0      8    12.315    87.132    0.34E-03    0.18E-03    0.22E-06
   1      7    12.315     4.429    0.45E-03    0.12E-03    0.18E-06
   1      7    12.315     2.733    0.35E-03    0.97E-04    0.15E-06
 Optimization of the real space projectors (new method)

 maximal supplied QI-value         = 16.25
 optimisation between [QCUT,QGAM] = [ 12.51, 25.03] = [ 43.85,175.40] Ry 
 Optimized for a Real-space Cutoff    1.35 Angstroem

   l    n(q)    QCUT    max X(q) W(low)/X(q) W(high)/X(q)  e(spline) 
   2      9    12.514    80.901    0.12E-03    0.34E-03    0.58E-06
   2      9    12.514    75.754    0.12E-03    0.34E-03    0.59E-06
   0     10    12.514    58.752    0.17E-03    0.81E-04    0.93E-07
   0     10    12.514    30.679    0.15E-03    0.74E-04    0.88E-07
   1     10    12.514    17.977    0.11E-03    0.79E-04    0.24E-06
   1     10    12.514    13.559    0.97E-04    0.61E-04    0.20E-06
 Optimization of the real space projectors (new method)

 maximal supplied QI-value         = 34.20
 optimisation between [QCUT,QGAM] = [ 12.31, 24.97] = [ 42.46,174.58] Ry 
 Optimized for a Real-space Cutoff    1.00 Angstroem

   l    n(q)    QCUT    max X(q) W(low)/X(q) W(high)/X(q)  e(spline) 
   0      7    12.313    19.460    0.14E-03    0.42E-03    0.16E-06
   0      7    12.313    12.209    0.12E-03    0.40E-03    0.16E-06
   1      7    12.313     4.655    0.33E-03    0.59E-03    0.89E-07
 Optimization of the real space projectors (new method)

 maximal supplied QI-value         = 25.13
 optimisation between [QCUT,QGAM] = [ 12.32, 24.88] = [ 42.47,173.37] Ry 
 Optimized for a Real-space Cutoff    1.20 Angstroem

   l    n(q)    QCUT    max X(q) W(low)/X(q) W(high)/X(q)  e(spline) 
   0      9    12.315    79.467    0.14E-03    0.22E-04    0.37E-06
   0      9    12.315    66.151    0.14E-03    0.23E-04    0.36E-06
   1      8    12.315    22.077    0.30E-03    0.54E-03    0.45E-06
   1      8    12.315    15.894    0.30E-03    0.55E-03    0.45E-06
 Optimization of the real space projectors (new method)

 maximal supplied QI-value         = 24.76
 optimisation between [QCUT,QGAM] = [ 12.38, 25.00] = [ 42.90,175.06] Ry 
 Optimized for a Real-space Cutoff    1.13 Angstroem

   l    n(q)    QCUT    max X(q) W(low)/X(q) W(high)/X(q)  e(spline) 
   0      8    12.378    20.381    0.16E-03    0.54E-05    0.27E-06
   0      8    12.378    15.268    0.17E-03    0.61E-05    0.29E-06
   1      8    12.378     5.964    0.38E-03    0.23E-03    0.28E-06
   1      8    12.378     5.382    0.33E-03    0.20E-03    0.25E-06
  PAW_PBE C 08Apr2002                   :
 energy of atom  1       EATOM= -147.1560
 kinetic energy error for atom=    0.0057 (will be added to EATOM!!)
  PAW_PBE Fe 06Sep2000                  :
 energy of atom  2       EATOM= -594.3153
 kinetic energy error for atom=    0.0017 (will be added to EATOM!!)
  PAW_PBE H 15Jun2001                   :
 energy of atom  3       EATOM=  -12.4884
 kinetic energy error for atom=    0.0004 (will be added to EATOM!!)
  PAW_PBE N 08Apr2002                   :
 energy of atom  4       EATOM= -264.5486
 kinetic energy error for atom=    0.0103 (will be added to EATOM!!)
  PAW_PBE O 08Apr2002                   :
 energy of atom  5       EATOM= -432.3788
 kinetic energy error for atom=    0.0168 (will be added to EATOM!!)
 
 
 POSCAR:  C Fe  H  N  O
  positions in direct lattice
  velocities in cartesian coordinates
 exchange correlation table for  LEXCH =        8
   RHO(1)=    0.500       N(1)  =     2000
   RHO(2)=  100.500       N(2)  =     4000
 


--------------------------------------------------------------------------------------------------------


 ion  position               nearest neighbor table
   1  0.820  0.956  0.095- 107 1.09 117 1.35  65 1.40
   2  0.910  0.964  0.437- 112 1.08 118 1.35  65 1.40
   3  0.815  0.808  0.911- 116 1.09 119 1.35  66 1.40
   4  0.681  0.456  0.592- 110 1.09 120 1.35  67 1.40
   5  0.595  0.299  0.068- 111 1.08 121 1.35  68 1.40
   6  0.090  0.798  0.071- 115 1.08 122 1.35  69 1.40
   7  0.590  0.464  0.934- 101 1.08 123 1.35  67 1.40
   8  0.685  0.307  0.409- 113 1.09 124 1.35  68 1.40
   9  0.406  0.463  0.435- 114 1.08 125 1.35  70 1.40
  10  0.180  0.806  0.413- 104 1.09 126 1.35  69 1.40
  11  0.095  0.963  0.937- 105 1.08 127 1.35  71 1.40
  12  0.410  0.299  0.568- 102 1.08 128 1.35  72 1.40
  13  0.905  0.799  0.570- 108 1.08 129 1.35  66 1.40
  14  0.185  0.955  0.596- 109 1.09 130 1.35  71 1.40
  15  0.320  0.306  0.910- 106 1.09 131 1.35  72 1.40
  16  0.316  0.455  0.094- 103 1.09 132 1.35  70 1.40
  17  0.740  0.037  0.432- 141 1.23 133 1.42  33 1.48
  18  0.860  0.054  0.063- 142 1.23 133 1.42  34 1.48
  19  0.851  0.710  0.943- 143 1.23 134 1.42  35 1.48
  20  0.640  0.554  0.562- 144 1.23 135 1.42  36 1.48
  21  0.647  0.209  0.441- 145 1.23 136 1.42  37 1.48
  22  0.259  0.725  0.075- 146 1.23 137 1.42  38 1.48
  23  0.760  0.537  0.930- 147 1.23 135 1.42  39 1.48
  24  0.767  0.226  0.073- 148 1.23 136 1.42  40 1.48
  25  0.234  0.536  0.431- 149 1.23 138 1.42  41 1.48
  26  0.140  0.708  0.443- 150 1.23 137 1.42  42 1.48
  27  0.148  0.053  0.563- 151 1.23 139 1.42  43 1.48
  28  0.360  0.208  0.940- 152 1.23 140 1.42  44 1.48
  29  0.732  0.727  0.575- 153 1.23 134 1.42  45 1.48
  30  0.267  0.036  0.932- 154 1.23 139 1.42  46 1.48
  31  0.241  0.225  0.572- 155 1.23 140 1.42  47 1.48
  32  0.352  0.553  0.062- 156 1.23 138 1.42  48 1.48
  33  0.715  0.081  0.426-  49 1.39  73 1.42  17 1.48
  34  0.837  0.098  0.072-  50 1.39  73 1.42  18 1.48
  35  0.828  0.666  0.934-  51 1.39  74 1.42  19 1.48
  36  0.663  0.598  0.572-  52 1.39  75 1.42  20 1.48
  37  0.671  0.165  0.432-  53 1.39  76 1.42  21 1.48
  38  0.285  0.681  0.079-  54 1.39  77 1.42  22 1.48
  39  0.784  0.581  0.926-  55 1.39  75 1.42  23 1.48
  40  0.792  0.182  0.078-  56 1.39  76 1.42  24 1.48
  41  0.208  0.580  0.426-  57 1.39  78 1.42  25 1.48
  42  0.163  0.664  0.433-  58 1.39  77 1.42  26 1.48
  43  0.171  0.097  0.571-  59 1.39  79 1.42  27 1.48
  44  0.337  0.164  0.932-  60 1.39  80 1.42  28 1.48
  45  0.707  0.683  0.580-  61 1.39  74 1.42  29 1.48
  46  0.293  0.080  0.926-  62 1.39  79 1.42  30 1.48
  47  0.215  0.181  0.577-  63 1.39  80 1.42  31 1.48
  48  0.329  0.597  0.071-  64 1.39  78 1.42  32 1.48
  49  0.644  0.094  0.598-  88 1.09  33 1.39  53 1.40
  50  0.886  0.127  0.904-  99 1.09  34 1.39  56 1.40
  51  0.877  0.636  0.102-  93 1.09  35 1.39  55 1.40
  52  0.613  0.628  0.404-  90 1.09  36 1.39  61 1.40
  53  0.622  0.136  0.600-  98 1.09  37 1.39  49 1.40
  54  0.356  0.668  0.907-  96 1.09  38 1.39  64 1.40
  55  0.856  0.594  0.098-  86 1.09  39 1.39  51 1.40
  56  0.864  0.169  0.907-  87 1.09  40 1.39  50 1.40
  57  0.136  0.593  0.597-  95 1.09  41 1.39  58 1.40
  58  0.114  0.634  0.601-  91 1.09  42 1.39  57 1.40
  59  0.122  0.126  0.403-  92 1.09  43 1.39  63 1.40
  60  0.386  0.135  0.100-  85 1.09  44 1.39  62 1.40
  61  0.635  0.670  0.408-  89 1.09  45 1.39  52 1.40
  62  0.364  0.093  0.097- 100 1.09  46 1.39  60 1.40
  63  0.144  0.168  0.406-  94 1.09  47 1.39  59 1.40
  64  0.378  0.626  0.903-  97 1.09  48 1.39  54 1.40
  65  0.842  0.984  0.258-   2 1.40   1 1.40 133 1.42
  66  0.835  0.779  0.748-  13 1.40   3 1.40 134 1.42
  67  0.658  0.484  0.755-   7 1.40   4 1.40 135 1.42
  68  0.664  0.279  0.245-   5 1.40   8 1.40 136 1.42
  69  0.158  0.778  0.249-   6 1.40  10 1.40 137 1.42
  70  0.336  0.483  0.257-   9 1.40  16 1.40 138 1.42
  71  0.164  0.983  0.759-  11 1.40  14 1.40 139 1.42
  72  0.342  0.278  0.746-  12 1.40  15 1.40 140 1.42
  73  0.765  0.110  0.250-  33 1.42  34 1.42  76 1.43
  74  0.757  0.653  0.755-  45 1.42  35 1.42  75 1.43
  75  0.735  0.611  0.751-  39 1.42  36 1.42  74 1.43
  76  0.742  0.153  0.254-  40 1.42  37 1.42  73 1.43
  77  0.235  0.652  0.254-  38 1.42  42 1.42  78 1.43
  78  0.257  0.609  0.250-  41 1.42  48 1.42  77 1.43
  79  0.243  0.109  0.750-  46 1.42  43 1.42  80 1.43
  80  0.265  0.152  0.753-  47 1.42  44 1.42  79 1.43
  81  0.963  0.881  0.004- 117 2.01 119 2.01 122 2.02 127 2.02  82 2.92  82 2.93
  82  0.037  0.881  0.504- 126 2.01 130 2.01 118 2.02 129 2.02  81 2.92  81 2.93
  83  0.537  0.381  0.501- 120 2.01 124 2.01 128 2.02 125 2.02  84 2.92  84 2.93
  84  0.464  0.381  0.001- 131 2.01 132 2.01 123 2.02 121 2.02  83 2.92  83 2.93
  85  0.441  0.145  0.235-  60 1.09
  86  0.893  0.571  0.230-  55 1.09
  87  0.901  0.192  0.775-  56 1.09
  88  0.606  0.071  0.730-  49 1.09
  89  0.598  0.693  0.277-  61 1.09
  90  0.559  0.617  0.269-  52 1.09
  91  0.059  0.645  0.736-  58 1.09
  92  0.067  0.116  0.269-  59 1.09
  93  0.932  0.647  0.237-  51 1.09
  94  0.106  0.191  0.274-  63 1.09
  95  0.099  0.569  0.730-  57 1.09
  96  0.394  0.691  0.775-  54 1.09
  97  0.433  0.616  0.768-  64 1.09
  98  0.567  0.146  0.735-  53 1.09
  99  0.941  0.117  0.769-  50 1.09
 100  0.401  0.070  0.230-  62 1.09
 101  0.554  0.475  0.090-   7 1.08
 102  0.447  0.287  0.412-  12 1.08
 103  0.268  0.458  0.928-  16 1.09
 104  0.228  0.802  0.579-  10 1.09
 105  0.059  0.975  0.093-  11 1.08
 106  0.272  0.302  0.076-  15 1.09
 107  0.772  0.960  0.929-   1 1.09
 108  0.941  0.787  0.414-  13 1.08
 109  0.233  0.958  0.430-  14 1.09
 110  0.728  0.460  0.426-   4 1.09
 111  0.559  0.287  0.912-   5 1.08
 112  0.947  0.975  0.593-   2 1.08
 113  0.733  0.304  0.575-   8 1.09
 114  0.442  0.475  0.591-   9 1.08
 115  0.053  0.787  0.915-   6 1.08
 116  0.767  0.804  0.077-   3 1.09
 117  0.873  0.920  0.173-   1 1.35 118 1.37  81 2.01
 118  0.928  0.925  0.382-   2 1.35 117 1.37  82 2.02
 119  0.870  0.843  0.834-   3 1.35 129 1.37  81 2.01
 120  0.628  0.421  0.669-   4 1.35 123 1.37  83 2.01
 121  0.575  0.337  0.122-   5 1.35 124 1.37  84 2.02
 122  0.072  0.837  0.126-   6 1.35 126 1.37  81 2.02
 123  0.572  0.426  0.879-   7 1.35 120 1.37  84 2.02
 124  0.630  0.343  0.332-   8 1.35 121 1.37  83 2.01
 125  0.426  0.425  0.380-   9 1.35 132 1.37  83 2.02
 126  0.128  0.841  0.336-  10 1.35 122 1.37  82 2.01
 127  0.075  0.925  0.883-  11 1.35 130 1.37  81 2.02
 128  0.428  0.337  0.623-  12 1.35 131 1.37  83 2.02
 129  0.925  0.837  0.625-  13 1.35 119 1.37  82 2.02
 130  0.130  0.920  0.673-  14 1.35 127 1.37  82 2.01
 131  0.373  0.342  0.832-  15 1.35 128 1.37  84 2.01
 132  0.370  0.420  0.170-  16 1.35 125 1.37  84 2.01
 133  0.810  0.026  0.246-  17 1.42  18 1.42  65 1.42
 134  0.802  0.738  0.761-  29 1.42  19 1.42  66 1.42
 135  0.690  0.526  0.744-  23 1.42  20 1.42  67 1.42
 136  0.697  0.237  0.258-  24 1.42  21 1.42  68 1.42
 137  0.190  0.736  0.261-  22 1.42  26 1.42  69 1.42
 138  0.303  0.525  0.245-  25 1.42  32 1.42  70 1.42
 139  0.197  0.025  0.746-  30 1.42  27 1.42  71 1.42
 140  0.310  0.236  0.758-  31 1.42  28 1.42  72 1.42
 141  0.704  0.011  0.588-  17 1.23
 142  0.919  0.042  0.908-  18 1.23
 143  0.911  0.722  0.099-  19 1.23
 144  0.581  0.542  0.406-  20 1.23
 145  0.588  0.222  0.596-  21 1.23
 146  0.296  0.751  0.919-  22 1.23
 147  0.796  0.511  0.086-  23 1.23
 148  0.804  0.253  0.917-  24 1.23
 149  0.197  0.509  0.588-  25 1.23
 150  0.081  0.720  0.598-  26 1.23
 151  0.089  0.040  0.408-  27 1.23
 152  0.419  0.220  0.096-  28 1.23
 153  0.695  0.753  0.420-  29 1.23
 154  0.303  0.009  0.089-  30 1.23
 155  0.204  0.251  0.416-  31 1.23
 156  0.412  0.541  0.906-  32 1.23
 

IMPORTANT INFORMATION: All symmetrisations will be switched off!
NOSYMM: (Re-)initialisation of all symmetry stuff for point group C_1.


----------------------------------------------------------------------------------------

                                     Primitive cell                                     

  volume of cell :    2196.0794

  direct lattice vectors                    reciprocal lattice vectors
    12.108157369 -0.001454489 -0.003253332     0.082588943  0.000017504 -0.000032403
    -0.006216018 32.748140968  1.847404600     0.000003126  0.030652769 -0.002068404
     0.002101757  0.375150111  5.559550034     0.000047290 -0.010185718  0.180557971

  length of vectors
    12.108157894 32.800208525  5.572193339     0.082588951  0.030722476  0.180845050

  position of ions in fractional coordinates (direct lattice)
     0.819953408  0.955963039  0.095007555
     0.910226211  0.963689531  0.436625940
     0.814860558  0.807614526  0.911159963
     0.680643908  0.456214102  0.591778728
     0.594752885  0.299161902  0.067660922
     0.089885281  0.798336351  0.071255881
     0.590306714  0.463781486  0.933574591
     0.684811181  0.307411546  0.408717674
     0.405652929  0.462944796  0.434919421
     0.180217823  0.805898009  0.413056835
     0.094930581  0.963004335  0.937311373
     0.410249249  0.298512869  0.568024683
     0.905007447  0.799227485  0.570393345
     0.184841175  0.954685201  0.596161814
     0.319881505  0.306170747  0.909662434
     0.315767126  0.454725060  0.093610356
     0.740397870  0.036931554  0.431781592
     0.859840948  0.053899602  0.063472211
     0.851371417  0.709596279  0.943142404
     0.640213131  0.554154928  0.561954115
     0.647317004  0.209412483  0.440682675
     0.259446229  0.725108492  0.074552959
     0.759552376  0.537099036  0.930268738
     0.766918248  0.226482354  0.072773635
     0.233511280  0.535500314  0.431042951
     0.140075794  0.707937947  0.442707644
     0.147942479  0.052665128  0.563031832
     0.359936933  0.208265032  0.940464062
     0.731935821  0.726748089  0.575167211
     0.266987206  0.035708926  0.931785052
     0.240551330  0.225208734  0.572217756
     0.352258174  0.552697985  0.061898412
     0.715075019  0.081160093  0.426105669
     0.836520941  0.097982805  0.071914334
     0.828025060  0.665552765  0.933982121
     0.663063617  0.598238998  0.571750297
     0.670772440  0.165361722  0.432140128
     0.284585829  0.680898179  0.078974331
     0.784432736  0.581335666  0.925907513
     0.792263182  0.182238964  0.078163638
     0.207710213  0.579695892  0.425653988
     0.163231162  0.663882354  0.433068875
     0.171340130  0.096731655  0.571359314
     0.336842346  0.164184827  0.931591142
     0.706636502  0.682503968  0.580040143
     0.292612286  0.079943138  0.925658687
     0.215457559  0.180966110  0.577456483
     0.328795378  0.596723928  0.071167412
     0.643580274  0.094081072  0.597647427
     0.885885423  0.127406366  0.903872208
     0.877337219  0.636129285  0.101909256
     0.613457604  0.627699451  0.404428680
     0.621523182  0.135967624  0.600449746
     0.356069900  0.668072600  0.907141746
     0.855629336  0.594239071  0.098056236
     0.863848530  0.169301827  0.906833777
     0.136175181  0.592525163  0.597396681
     0.113977699  0.634393442  0.600855543
     0.121981243  0.126109155  0.403208920
     0.386205816  0.134804221  0.099710010
     0.635151303  0.669599483  0.408413253
     0.364119248  0.092910045  0.097015088
     0.143939627  0.168008353  0.406081299
     0.378062244  0.626203767  0.903396022
     0.842037095  0.984084525  0.258418746
     0.835390754  0.779358462  0.747673373
     0.658441176  0.484270756  0.755494925
     0.663946408  0.279176857  0.245297918
     0.158005150  0.777848758  0.249284829
     0.336380097  0.482917815  0.257430867
     0.164140403  0.982951246  0.759453556
     0.341958898  0.278088409  0.746007238
     0.764813323  0.110358132  0.250447734
     0.756535579  0.653233662  0.754931554
     0.734538422  0.610574627  0.750819858
     0.742453290  0.153008109  0.253550250
     0.234813042  0.651613275  0.254039956
     0.257212147  0.608982854  0.250207173
     0.242962147  0.109126474  0.749918413
     0.265274505  0.151783227  0.752934514
     0.963470240  0.881165492  0.003675678
     0.037116928  0.880898059  0.504476672
     0.537316445  0.381252135  0.500523251
     0.463614609  0.380980790  0.001173300
     0.441202576  0.145218990  0.234551299
     0.893085000  0.571025189  0.230104753
     0.901372229  0.192482102  0.774554974
     0.606231693  0.070897155  0.730139504
     0.597502805  0.692804426  0.276596130
     0.558520959  0.617349856  0.269249309
     0.058978478  0.644692390  0.736072242
     0.066889924  0.115700949  0.268518606
     0.932158457  0.646500677  0.237200065
     0.106440738  0.191172879  0.273798292
     0.098929525  0.569284052  0.729674688
     0.393532572  0.691326278  0.775254503
     0.433139011  0.615904584  0.768332503
     0.566513399  0.146358549  0.735302476
     0.940981737  0.117037594  0.769059824
     0.401496925  0.069752481  0.229532140
     0.553804987  0.475175040  0.090097693
     0.446710216  0.287079388  0.411587760
     0.267754386  0.458461776  0.927578403
     0.228117309  0.801826831  0.579195329
     0.058985092  0.974727429  0.093421298
     0.271946313  0.302155257  0.075814137
     0.772059840  0.959939864  0.928838489
     0.940968337  0.787494638  0.414355235
     0.232860748  0.958378915  0.430134512
     0.728495892  0.460280960  0.425538623
     0.558683513  0.287472999  0.911555151
     0.946640705  0.975146498  0.593042817
     0.732886601  0.303698219  0.574643516
     0.441548068  0.474610001  0.591221151
     0.053378462  0.786957926  0.914645467
     0.766624129  0.803983316  0.076930708
     0.872798066  0.920462204  0.172546138
     0.928369683  0.925418013  0.382076798
     0.869873808  0.842697521  0.834456040
     0.627901818  0.420660931  0.669018735
     0.574990552  0.337320268  0.122389592
     0.071929684  0.836594465  0.126240887
     0.572325816  0.425515257  0.878717464
     0.630396168  0.342598577  0.331668974
     0.425736330  0.424839520  0.379707657
     0.127502184  0.841445906  0.335941181
     0.074961448  0.924844220  0.882733488
     0.428447031  0.336765288  0.622884856
     0.925331392  0.837335501  0.625378977
     0.130273716  0.919528862  0.673385915
     0.372829738  0.341680632  0.832440631
     0.370425987  0.419574880  0.170309477
     0.810015426  0.026005741  0.245957571
     0.801905567  0.737570727  0.760661706
     0.690263879  0.526212084  0.743747720
     0.696993892  0.237351031  0.258274762
     0.189950572  0.735928620  0.260864638
     0.303053643  0.524702972  0.244769461
     0.197345642  0.024771860  0.746052843
     0.310016277  0.236154007  0.758224595
     0.703790062  0.010644018  0.588037707
     0.919422499  0.041711131  0.908291009
     0.910909029  0.721700415  0.098688161
     0.580823383  0.542000977  0.406301507
     0.587634002  0.221536977  0.595916565
     0.296172160  0.751491135  0.918988322
     0.796209867  0.510761623  0.086099641
     0.803705144  0.252814499  0.916975823
     0.197385216  0.509152132  0.587560490
     0.080551752  0.720032316  0.598304630
     0.088504716  0.040477188  0.407615959
     0.419380445  0.220463151  0.095864893
     0.695174885  0.753101568  0.419560914
     0.303279580  0.009457356  0.088542176
     0.203815728  0.251498896  0.416217035
     0.411550352  0.540622083  0.905844547

  ion indices of the primitive-cell ions
   primitive index   ion index
                 1           1
                 2           2
                 3           3
                 4           4
                 5           5
                 6           6
                 7           7
                 8           8
                 9           9
                10          10
                11          11
                12          12
                13          13
                14          14
                15          15
                16          16
                17          17
                18          18
                19          19
                20          20
                21          21
                22          22
                23          23
                24          24
                25          25
                26          26
                27          27
                28          28
                29          29
                30          30
                31          31
                32          32
                33          33
                34          34
                35          35
                36          36
                37          37
                38          38
                39          39
                40          40
                41          41
                42          42
                43          43
                44          44
                45          45
                46          46
                47          47
                48          48
                49          49
                50          50
                51          51
                52          52
                53          53
                54          54
                55          55
                56          56
                57          57
                58          58
                59          59
                60          60
                61          61
                62          62
                63          63
                64          64
                65          65
                66          66
                67          67
                68          68
                69          69
                70          70
                71          71
                72          72
                73          73
                74          74
                75          75
                76          76
                77          77
                78          78
                79          79
                80          80
                81          81
                82          82
                83          83
                84          84
                85          85
                86          86
                87          87
                88          88
                89          89
                90          90
                91          91
                92          92
                93          93
                94          94
                95          95
                96          96
                97          97
                98          98
                99          99
               100         100
               101         101
               102         102
               103         103
               104         104
               105         105
               106         106
               107         107
               108         108
               109         109
               110         110
               111         111
               112         112
               113         113
               114         114
               115         115
               116         116
               117         117
               118         118
               119         119
               120         120
               121         121
               122         122
               123         123
               124         124
               125         125
               126         126
               127         127
               128         128
               129         129
               130         130
               131         131
               132         132
               133         133
               134         134
               135         135
               136         136
               137         137
               138         138
               139         139
               140         140
               141         141
               142         142
               143         143
               144         144
               145         145
               146         146
               147         147
               148         148
               149         149
               150         150
               151         151
               152         152
               153         153
               154         154
               155         155
               156         156

----------------------------------------------------------------------------------------

 
 

Automatic generation of k-mesh.
 generate k-points for:    2    1    4
Space group operators:
 irot       det(A)        alpha          n_x          n_y          n_z        tau_x        tau_y        tau_z
    1     1.000000     0.000000     1.000000     0.000000     0.000000     0.000000     0.000000     0.000000
 
 Subroutine IBZKPT returns following result:
 ===========================================
 
 Found      6 irreducible k-points:
 
 Following reciprocal coordinates:
            Coordinates               Weight
  0.000000  0.000000  0.000000      1.000000
  0.500000  0.000000 -0.000000      1.000000
 -0.000000  0.000000  0.250000      2.000000
  0.500000  0.000000  0.250000      2.000000
 -0.000000  0.000000  0.500000      1.000000
  0.500000  0.000000  0.500000      1.000000
 
 Following cartesian coordinates:
            Coordinates               Weight
  0.000000  0.000000  0.000000      1.000000
  0.041294  0.000009 -0.000016      1.000000
  0.000012 -0.002546  0.045139      2.000000
  0.041306 -0.002538  0.045123      2.000000
  0.000024 -0.005093  0.090279      1.000000
  0.041318 -0.005084  0.090263      1.000000
 


--------------------------------------------------------------------------------------------------------




 Dimension of arrays:
   k-points           NKPTS =      6   k-points in BZ     NKDIM =      6   number of bands    NBANDS=    416
   number of dos      NEDOS =    301   number of ions     NIONS =    156
   non local maximal  LDIM  =      6   non local SUM 2l+1 LMDIM =     18
   total plane-waves  NPLWV = 576000
   max r-space proj   IRMAX =   2728   max aug-charges    IRDMAX=   9542
   dimension x,y,z NGX =    80 NGY =  200 NGZ =   36
   dimension x,y,z NGXF=   160 NGYF=  400 NGZF=   72
   support grid    NGXF=   160 NGYF=  400 NGZF=   72
   ions per type =              80   4  32  24  16
   NGX,Y,Z   is equivalent  to a cutoff of  10.98, 10.14, 10.74 a.u.
   NGXF,Y,Z  is equivalent  to a cutoff of  21.97, 20.27, 21.48 a.u.

 SYSTEM =  flex_MOF                                
 POSCAR =   C Fe  H  N  O                          

 Startparameter for this run:
   NWRITE =      2    write-flag & timer
   PREC   = normal    normal or accurate (medium, high low for compatibility)
   ISTART =      0    job   : 0-new  1-cont  2-samecut
   ICHARG =      2    charge: 1-file 2-atom 10-const
   ISPIN  =      2    spin polarized calculation?
   LNONCOLLINEAR =      F non collinear calculations
   LSORBIT =      F    spin-orbit coupling
   INIWAV =      1    electr: 0-lowe 1-rand  2-diag
   LASPH  =      F    aspherical Exc in radial PAW
   METAGGA=      F    non-selfconsistent MetaGGA calc.

 Electronic Relaxation 1
   ENCUT  =  600.0 eV  44.10 Ry    6.64 a.u.  24.18 65.51 11.13*2*pi/ulx,y,z
   ENINI  =  600.0     initial cutoff
   ENAUG  =  644.9 eV  augmentation charge cutoff
   NELM   =     80;   NELMIN=  3; NELMDL= -8     # of ELM steps 
   EDIFF  = 0.1E-05   stopping-criterion for ELM
   LREAL  =      T    real-space projection
   NLSPLINE    = F    spline interpolate recip. space projectors
   LCOMPAT=      F    compatible to vasp.4.4
   GGA_COMPAT  = T    GGA compatible to vasp.4.4-vasp.4.6
   LMAXPAW     = -100 max onsite density
   LMAXMIX     =    2 max onsite mixed and CHGCAR
   VOSKOWN=      0    Vosko Wilk Nusair interpolation
   ROPT   =   -0.00050  -0.00050  -0.00050  -0.00050
   ROPT   =   -0.00050
 Ionic relaxation
   EDIFFG = -.1E-01   stopping-criterion for IOM
   NSW    =   1000    number of steps for IOM
   NBLOCK =      1;   KBLOCK =   1000    inner block; outer block 
   IBRION =      2    ionic relax: 0-MD 1-quasi-New 2-CG
   NFREE  =      1    steps in history (QN), initial steepest desc. (CG)
   ISIF   =      4    stress and relaxation
   IWAVPR =     11    prediction:  0-non 1-charg 2-wave 3-comb
   ISYM   =      0    0-nonsym 1-usesym 2-fastsym
   LCORR  =      T    Harris-Foulkes like correction to forces

   POTIM  = 0.5000    time-step for ionic-motion
   TEIN   =    0.0    initial temperature
   TEBEG  =    0.0;   TEEND  =   0.0 temperature during run
   SMASS  =  -3.00    Nose mass-parameter (am)
   estimated Nose-frequenzy (Omega)   =  0.10E-29 period in steps = 0.13E+47 mass=  -0.335E-26a.u.
   SCALEE = 1.0000    scale energy and forces
   NPACO  =    256;   APACO  = 16.0  distance and # of slots for P.C.
   PSTRESS=    0.0 pullay stress

  Mass of Ions in am
   POMASS =  12.01 55.85  1.00 14.00 16.00
  Ionic Valenz
   ZVAL   =   4.00  8.00  1.00  5.00  6.00
  Atomic Wigner-Seitz radii
   RWIGS  =  -1.00 -1.00 -1.00 -1.00 -1.00
  virtual crystal weights 
   VCA    =   1.00  1.00  1.00  1.00  1.00
   NELECT =     600.0000    total number of electrons
   NUPDOWN=      16.6500    fix difference up-down

 DOS related values:
   EMIN   =  10.00;   EMAX   =-10.00  energy-range for DOS
   EFERMI =   0.00
   ISMEAR =     0;   SIGMA  =   0.05  broadening in eV -4-tet -1-fermi 0-gaus

 Electronic relaxation 2 (details)
   IALGO  =     38    algorithm
   LDIAG  =      T    sub-space diagonalisation (order eigenvalues)
   LSUBROT=      F    optimize rotation matrix (better conditioning)
   TURBO    =      0    0=normal 1=particle mesh
   IRESTART =      0    0=no restart 2=restart with 2 vectors
   NREBOOT  =      0    no. of reboots
   NMIN     =      0    reboot dimension
   EREF     =   0.00    reference energy to select bands
   IMIX   =      4    mixing-type and parameters
     AMIX     =   0.40;   BMIX     =  1.00
     AMIX_MAG =   1.60;   BMIX_MAG =  1.00
     AMIN     =   0.10
     WC   =   100.;   INIMIX=   1;  MIXPRE=   1;  MAXMIX= -45

 Intra band minimization:
   WEIMIN = 0.0010     energy-eigenvalue tresh-hold
   EBREAK =  0.60E-09  absolut break condition
   DEPER  =   0.30     relativ break condition  

   TIME   =   0.40     timestep for ELM

  volume/ion in A,a.u.               =      14.08        95.00
  Fermi-wavevector in a.u.,A,eV,Ry     =   1.062289  2.007435 15.353594  1.128457
  Thomas-Fermi vector in A             =   2.197734
 
 Write flags
   LWAVE        =      T    write WAVECAR
   LDOWNSAMPLE  =      F    k-point downsampling of WAVECAR
   LCHARG       =      T    write CHGCAR
   LVTOT        =      F    write LOCPOT, total local potential
   LVHAR        =      F    write LOCPOT, Hartree potential only
   LELF         =      F    write electronic localiz. function (ELF)
   LORBIT       =     11    0 simple, 1 ext, 2 COOP (PROOUT), +10 PAW based schemes


 Dipole corrections
   LMONO  =      F    monopole corrections only (constant potential shift)
   LDIPOL =      F    correct potential (dipole corrections)
   IDIPOL =      0    1-x, 2-y, 3-z, 4-all directions 
   EPSILON=  1.0000000 bulk dielectric constant

 Exchange correlation treatment:
   GGA     =    PE    GGA type
   LEXCH   =     8    internal setting for exchange type
   VOSKOWN=      0    Vosko Wilk Nusair interpolation
   LHFCALC =     F    Hartree Fock is set to
   LHFONE  =     F    Hartree Fock one center treatment
   AEXX    =    0.0000 exact exchange contribution

 Linear response parameters
   LEPSILON=     F    determine dielectric tensor
   LRPA    =     F    only Hartree local field effects (RPA)
   LNABLA  =     F    use nabla operator in PAW spheres
   LVEL    =     F    velocity operator in full k-point grid
   LINTERFAST=   F  fast interpolation
   KINTER  =     0    interpolate to denser k-point grid
   CSHIFT  =0.1000    complex shift for real part using Kramers Kronig
   OMEGAMAX=  -1.0    maximum frequency
   DEG_THRESHOLD= 0.2000000E-02 threshold for treating states as degnerate
   RTIME   =   -0.100 relaxation time in fs
  (WPLASMAI=    0.000 imaginary part of plasma frequency in eV, 0.658/RTIME)
   DFIELD  = 0.0000000 0.0000000 0.0000000 field for delta impulse in time
 
 Orbital magnetization related:
   ORBITALMAG=     F  switch on orbital magnetization
   LCHIMAG   =     F  perturbation theory with respect to B field
   DQ        =  0.001000  dq finite difference perturbation B field
   LLRAUG    =     F  two centre corrections for induced B field



--------------------------------------------------------------------------------------------------------


 conjugate gradient relaxation of ions
 charge density and potential will be updated during run
 spin polarized calculation
 Variant of blocked Davidson
 Davidson routine will perform the subspace rotation
 perform sub-space diagonalisation
    after iterative eigenvector-optimisation
 modified Broyden-mixing scheme, WC =      100.0
 initial mixing is a Kerker type mixing with AMIX =  0.4000 and BMIX =      1.0000
 Hartree-type preconditioning will be used
 using additional bands          116
 real space projection scheme for non local part
 use partial core corrections
 calculate Harris-corrections to forces 
   (improved forces if not selfconsistent)
 use gradient corrections 
 use of overlap-Matrix (Vanderbilt PP)
 Gauss-broadening in eV      SIGMA  =   0.05


--------------------------------------------------------------------------------------------------------


  energy-cutoff  :      600.00
  volume of cell :     2196.08
      direct lattice vectors                 reciprocal lattice vectors
    12.108157369 -0.001454489 -0.003253332     0.082588943  0.000017504 -0.000032403
    -0.006216018 32.748140968  1.847404600     0.000003126  0.030652769 -0.002068404
     0.002101757  0.375150111  5.559550034     0.000047290 -0.010185718  0.180557971

  length of vectors
    12.108157894 32.800208525  5.572193339     0.082588951  0.030722476  0.180845050


 
 k-points in units of 2pi/SCALE and weight: read from INCAR                         
   0.00000000  0.00000000  0.00000000       0.125
   0.04129447  0.00000875 -0.00001620       0.125
   0.00001182 -0.00254643  0.04513949       0.250
   0.04130629 -0.00253768  0.04512329       0.250
   0.00002365 -0.00509286  0.09027899       0.125
   0.04131812 -0.00508411  0.09026278       0.125
 
 k-points in reciprocal lattice and weights: read from INCAR                         
   0.00000000  0.00000000  0.00000000       0.125
   0.50000000  0.00000000 -0.00000000       0.125
  -0.00000000  0.00000000  0.25000000       0.250
   0.50000000  0.00000000  0.25000000       0.250
  -0.00000000  0.00000000  0.50000000       0.125
   0.50000000  0.00000000  0.50000000       0.125
 
 position of ions in fractional coordinates (direct lattice) 
   0.81995341  0.95596304  0.09500755
   0.91022621  0.96368953  0.43662594
   0.81486056  0.80761453  0.91115996
   0.68064391  0.45621410  0.59177873
   0.59475288  0.29916190  0.06766092
   0.08988528  0.79833635  0.07125588
   0.59030671  0.46378149  0.93357459
   0.68481118  0.30741155  0.40871767
   0.40565293  0.46294480  0.43491942
   0.18021782  0.80589801  0.41305684
   0.09493058  0.96300434  0.93731137
   0.41024925  0.29851287  0.56802468
   0.90500745  0.79922749  0.57039335
   0.18484118  0.95468520  0.59616181
   0.31988150  0.30617075  0.90966243
   0.31576713  0.45472506  0.09361036
   0.74039787  0.03693155  0.43178159
   0.85984095  0.05389960  0.06347221
   0.85137142  0.70959628  0.94314240
   0.64021313  0.55415493  0.56195411
   0.64731700  0.20941248  0.44068267
   0.25944623  0.72510849  0.07455296
   0.75955238  0.53709904  0.93026874
   0.76691825  0.22648235  0.07277364
   0.23351128  0.53550031  0.43104295
   0.14007579  0.70793795  0.44270764
   0.14794248  0.05266513  0.56303183
   0.35993693  0.20826503  0.94046406
   0.73193582  0.72674809  0.57516721
   0.26698721  0.03570893  0.93178505
   0.24055133  0.22520873  0.57221776
   0.35225817  0.55269799  0.06189841
   0.71507502  0.08116009  0.42610567
   0.83652094  0.09798281  0.07191433
   0.82802506  0.66555276  0.93398212
   0.66306362  0.59823900  0.57175030
   0.67077244  0.16536172  0.43214013
   0.28458583  0.68089818  0.07897433
   0.78443274  0.58133567  0.92590751
   0.79226318  0.18223896  0.07816364
   0.20771021  0.57969589  0.42565399
   0.16323116  0.66388235  0.43306888
   0.17134013  0.09673165  0.57135931
   0.33684235  0.16418483  0.93159114
   0.70663650  0.68250397  0.58004014
   0.29261229  0.07994314  0.92565869
   0.21545756  0.18096611  0.57745648
   0.32879538  0.59672393  0.07116741
   0.64358027  0.09408107  0.59764743
   0.88588542  0.12740637  0.90387221
   0.87733722  0.63612929  0.10190926
   0.61345760  0.62769945  0.40442868
   0.62152318  0.13596762  0.60044975
   0.35606990  0.66807260  0.90714175
   0.85562934  0.59423907  0.09805624
   0.86384853  0.16930183  0.90683378
   0.13617518  0.59252516  0.59739668
   0.11397770  0.63439344  0.60085554
   0.12198124  0.12610916  0.40320892
   0.38620582  0.13480422  0.09971001
   0.63515130  0.66959948  0.40841325
   0.36411925  0.09291005  0.09701509
   0.14393963  0.16800835  0.40608130
   0.37806224  0.62620377  0.90339602
   0.84203710  0.98408453  0.25841875
   0.83539075  0.77935846  0.74767337
   0.65844118  0.48427076  0.75549492
   0.66394641  0.27917686  0.24529792
   0.15800515  0.77784876  0.24928483
   0.33638010  0.48291782  0.25743087
   0.16414040  0.98295125  0.75945356
   0.34195890  0.27808841  0.74600724
   0.76481332  0.11035813  0.25044773
   0.75653558  0.65323366  0.75493155
   0.73453842  0.61057463  0.75081986
   0.74245329  0.15300811  0.25355025
   0.23481304  0.65161328  0.25403996
   0.25721215  0.60898285  0.25020717
   0.24296215  0.10912647  0.74991841
   0.26527450  0.15178323  0.75293451
   0.96347024  0.88116549  0.00367568
   0.03711693  0.88089806  0.50447667
   0.53731644  0.38125214  0.50052325
   0.46361461  0.38098079  0.00117330
   0.44120258  0.14521899  0.23455130
   0.89308500  0.57102519  0.23010475
   0.90137223  0.19248210  0.77455497
   0.60623169  0.07089715  0.73013950
   0.59750280  0.69280443  0.27659613
   0.55852096  0.61734986  0.26924931
   0.05897848  0.64469239  0.73607224
   0.06688992  0.11570095  0.26851861
   0.93215846  0.64650068  0.23720007
   0.10644074  0.19117288  0.27379829
   0.09892952  0.56928405  0.72967469
   0.39353257  0.69132628  0.77525450
   0.43313901  0.61590458  0.76833250
   0.56651340  0.14635855  0.73530248
   0.94098174  0.11703759  0.76905982
   0.40149693  0.06975248  0.22953214
   0.55380499  0.47517504  0.09009769
   0.44671022  0.28707939  0.41158776
   0.26775439  0.45846178  0.92757840
   0.22811731  0.80182683  0.57919533
   0.05898509  0.97472743  0.09342130
   0.27194631  0.30215526  0.07581414
   0.77205984  0.95993986  0.92883849
   0.94096834  0.78749464  0.41435524
   0.23286075  0.95837892  0.43013451
   0.72849589  0.46028096  0.42553862
   0.55868351  0.28747300  0.91155515
   0.94664070  0.97514650  0.59304282
   0.73288660  0.30369822  0.57464352
   0.44154807  0.47461000  0.59122115
   0.05337846  0.78695793  0.91464547
   0.76662413  0.80398332  0.07693071
   0.87279807  0.92046220  0.17254614
   0.92836968  0.92541801  0.38207680
   0.86987381  0.84269752  0.83445604
   0.62790182  0.42066093  0.66901873
   0.57499055  0.33732027  0.12238959
   0.07192968  0.83659446  0.12624089
   0.57232582  0.42551526  0.87871746
   0.63039617  0.34259858  0.33166897
   0.42573633  0.42483952  0.37970766
   0.12750218  0.84144591  0.33594118
   0.07496145  0.92484422  0.88273349
   0.42844703  0.33676529  0.62288486
   0.92533139  0.83733550  0.62537898
   0.13027372  0.91952886  0.67338592
   0.37282974  0.34168063  0.83244063
   0.37042599  0.41957488  0.17030948
   0.81001543  0.02600574  0.24595757
   0.80190557  0.73757073  0.76066171
   0.69026388  0.52621208  0.74374772
   0.69699389  0.23735103  0.25827476
   0.18995057  0.73592862  0.26086464
   0.30305364  0.52470297  0.24476946
   0.19734564  0.02477186  0.74605284
   0.31001628  0.23615401  0.75822459
   0.70379006  0.01064402  0.58803771
   0.91942250  0.04171113  0.90829101
   0.91090903  0.72170041  0.09868816
   0.58082338  0.54200098  0.40630151
   0.58763400  0.22153698  0.59591657
   0.29617216  0.75149114  0.91898832
   0.79620987  0.51076162  0.08609964
   0.80370514  0.25281450  0.91697582
   0.19738522  0.50915213  0.58756049
   0.08055175  0.72003232  0.59830463
   0.08850472  0.04047719  0.40761596
   0.41938045  0.22046315  0.09586489
   0.69517488  0.75310157  0.41956091
   0.30327958  0.00945736  0.08854218
   0.20381573  0.25149890  0.41621703
   0.41155035  0.54062208  0.90584455
 
 position of ions in cartesian coordinates  (Angst):
   9.92238230 31.34046184  2.29158219
  11.01608957 31.72151696  4.20480697
   9.86335475 26.78851092  6.55497918
   8.23975149 15.16117957  4.13062112
   7.19964413  9.82151408  0.92690243
   1.08353242 26.17063227  1.87070846
   7.14660586 15.53735348  6.04512624
   8.29074970 10.21949106  2.83797195
   4.90974592 15.32315149  3.27188290
   2.17796444 26.54635781  3.78464352
   1.14541837 31.88809612  6.98977927
   4.96670075  9.98823933  3.70810102
  10.95420340 26.38588115  4.64468259
   2.23340468 31.48754685  5.07747992
   3.87318432 10.36731749  5.62189438
   3.82072822 14.92605903  1.35946533
   8.96553186  1.37034574  2.46633013
  10.41088787  1.78767273  0.44965396
  10.30611049 23.59054065  6.55158902
   7.74953779 18.35742967  4.14587756
   7.83744065  7.02225014  2.83476103
   3.13706518 23.77354631  1.75320561
   9.19539628 17.93688059  6.16164375
   9.28471197  7.44306161  0.82049817
   2.82496859 17.69800596  3.38493091
   1.69258967 23.34952978  3.76864741
   1.79216681  1.93569132  3.22701614
   4.35885507  7.17258432  5.61213579
   8.85908549 24.01435832  4.53788742
   3.23445953  1.51857189  5.24540585
   2.91243612  7.58948503  3.59654230
   4.26189192 18.12254037  1.36403810
   8.65863194  2.81665567  2.51656494
  10.12826928  3.23451667  0.57810374
  10.02368365 22.14479490  6.41937173
   8.02596164 19.80474281  4.28170669
   8.12169863  5.57643078  2.70581242
   3.44174351 22.32736285  1.69603032
   9.49636746 19.38387570  6.21903931
   9.59187876  5.99615803  0.76864626
   2.51227917 19.14334481  3.43670175
   1.97321209 21.90314132  3.63359635
   2.07521283  3.38187816  3.35464577
   4.07947754  5.72574446  5.48144751
   8.55304262 22.56731050  4.48332425
   3.54444419  2.96482452  5.29298114
   2.60888281  6.14262316  3.54401488
   3.97754651 19.56781953  1.49697964
   7.79324254  3.30425164  3.49436280
  10.72754787  4.51012088  5.25761179
  10.61919711 20.86900669  1.73890351
   7.42478942 20.70681930  3.40606055
   7.52591732  4.67704170  3.58739560
   4.30910423 22.21793211  6.27634191
  10.35660694 19.49576618  1.64016490
  10.46046750  5.88326242  5.35154634
   1.64640296 19.62801294  4.41544743
   1.37737936 21.00045111  4.51209701
   1.47703164  4.28092684  2.47423795
   4.67561242  4.45143213  0.80212427
   7.68720808 22.08043073  3.50554872
   4.40843953  3.07849688  0.70981808
   1.74265280  5.65409331  2.56754042
   4.57564337 20.84536848  6.17809715
  10.18994370 32.32265984  3.25195480
  10.11176963 25.80181544  5.59380013
   7.97108700 16.14143328  5.09271373
   8.03794778  9.23358090  1.87733862
   1.90884004 25.56639020  2.82239881
   4.07048238 15.91074664  2.32225002
   1.98292398 32.47449632  6.03759469
   4.14033147  9.38624575  4.66009387
   9.26032047  3.70686676  1.59376464
   9.15777802 21.67430032  5.40140536
   8.89168950 20.27578572  5.29980924
   8.98932307  5.10477063  1.68987774
   2.83963675 21.43408498  2.61537728
   3.11110558 20.03654747  2.51524023
   2.94272173  3.85466773  4.37001925
   3.21262445  5.25269616  4.46551911
  11.66037967 28.85650932  1.64516981
   0.44500222 29.03697430  4.43191767
   6.50459418 12.67228850  3.48526294
   5.61115292 12.47617845  0.70884039
   5.34174051  4.84300218  1.57084254
  10.81054785 18.78503824  2.33128794
  10.91438825  6.59269435  4.65883699
   7.34144262  2.59478018  4.18825056
   7.23093284 22.79095300  2.81569623
   6.75938811 20.31725664  2.63558291
   0.71166032 21.38852906  5.28304627
   0.80975889  3.88962847  1.70637147
  11.28320117 21.25932511  2.51004133
   1.28818833  6.36311704  1.87502267
   1.19584918 18.91658804  5.10803906
   4.76228642 22.92991483  5.58594525
   5.24230168 20.45734016  5.40799881
   6.86006905  5.06799522  4.35649131
  11.39444382  4.11990787  4.48878104
   4.86143679  2.36978913  1.40365027
   6.70279361 15.59409385  1.37694148
   5.40791817  9.55507372  2.81714123
   3.24111198 15.36136258  6.00301185
   2.75831343 26.47529148  4.70062184
   0.70833821 31.95547247  2.31990442
   3.29104990  9.92306908  0.97881077
   9.34420724 31.78357691  6.93480961
  11.38936850 25.94306220  3.75538860
   2.81446131 31.54615414  4.16111038
   8.81877617 15.23192705  3.21375839
   6.76475682  9.75536372  5.59709783
  11.45725953 32.15533819  5.09546160
   8.87322627 10.16006370  3.75342854
   5.34462591 15.76374968  4.16228377
   0.64334544 26.11446081  6.53867327
   9.27756971 26.35670447  1.91048852
  10.56261738 30.20688723  2.65690549
  11.23589684 30.44770538  3.83077627
  10.52908456 27.90855826  6.19317339
   7.60152530 14.02593263  4.49453129
   6.96023654 11.09168985  1.30172744
   0.86600098 27.44416813  2.24713698
   6.92901289 14.26365212  5.66951058
   7.63150350 11.34297525  2.47479756
   5.15303973 14.05453264  2.89446914
   1.53929213 27.68163207  3.42175804
   0.90375145 30.61797744  6.61591859
   5.18691989 11.26148926  4.08370738
  11.20016762 27.65444614  5.02071276
   1.57307414 30.36529211  5.44204071
   4.51390684 11.50115342  5.25800477
   4.48292600 13.80365015  1.72076350
   9.80814954  0.94273252  1.41282130
   9.70661277 24.43826611  5.58891950
   8.35611590 17.51048055  5.10478363
   8.43837918  7.86868306  1.87210730
   2.29592514 24.19788129  2.80922995
   3.66667409 17.27443139  2.32916082
   2.39090613  1.09082713  4.19283973
   3.75385154  8.01760183  4.65065098
   8.52277058  0.56815056  3.28659920
  11.13416204  1.70537018  5.12375546
  11.02515119 23.67004489  1.87897095
   7.03018578 17.90110364  3.25825904
   7.11504037  7.47762762  3.72038462
   3.58335933 24.95426542  6.49650619
   9.63764043 16.75763586  1.41966830
   9.73174413  8.62203944  5.56240892
   2.38804127 16.89392209  4.20653977
   0.97211505 23.80405667  4.65623348
   1.07223413  1.47834111  2.34065113
   5.07675551  7.25511208  0.93888592
   8.41348743 24.81906352  3.72159156
   3.67228418  0.34248633  0.50873955
   2.46714438  8.39196873  2.77793657
   4.98165978 18.04359728  6.03349690
 


--------------------------------------------------------------------------------------------------------


 k-point  1 :   0.0000 0.0000 0.0000  plane waves:   73243
 k-point  2 :   0.5000 0.0000-0.0000  plane waves:   73272
 k-point  3 :  -0.0000 0.0000 0.2500  plane waves:   73305
 k-point  4 :   0.5000 0.0000 0.2500  plane waves:   73272
 k-point  5 :  -0.0000 0.0000 0.5000  plane waves:   73336
 k-point  6 :   0.5000 0.0000 0.5000  plane waves:   73472

 maximum and minimum number of plane-waves per node :     18382    18240

 maximum number of plane-waves:     73472
 maximum index in each direction: 
   IXMAX=   24   IYMAX=   65   IZMAX=   11
   IXMIN=  -24   IYMIN=  -65   IZMIN=  -11


 real space projection operators:
  total allocation   :      13457.41 KBytes
  max/ min on nodes  :       3379.97       3337.23


 parallel 3D FFT for wavefunctions:
    minimum data exchange during FFTs selected (reduces bandwidth)
 parallel 3D FFT for charge:
    minimum data exchange during FFTs selected (reduces bandwidth)


 total amount of memory used by VASP MPI-rank0   109306. kBytes
=======================================================================

   base      :      30000. kBytes
   nonlr-proj:       7404. kBytes
   fftplans  :       6265. kBytes
   grid      :      17779. kBytes
   one-center:       1213. kBytes
   wavefun   :      46645. kBytes
 
     INWAV:  cpu time    0.0002: real time    0.0006
 Broyden mixing: mesh for mixing (old mesh)
   NGX = 49   NGY =131   NGZ = 23
  (NGX  =160   NGY  =400   NGZ  = 72)
  gives a total of 147637 points

 initial charge density was supplied:
 charge density of overlapping atoms calculated
 number of electron     600.0000000 magnetization      16.0000000
 keeping initial charge density in first step


--------------------------------------------------------------------------------------------------------


 Maximum index for non-local projection operator          647
 Maximum index for augmentation-charges          412 (set IRDMAX)


--------------------------------------------------------------------------------------------------------


 First call to EWALD:  gamma=   0.136
 Maximum number of real-space cells 3x 1x 6
 Maximum number of reciprocal cells 3x 6x 1

    FEWALD:  cpu time    0.0143: real time    0.0143


--------------------------------------- Iteration      1(   1)  ---------------------------------------


    POTLOK:  cpu time    0.3084: real time    0.6373
    SETDIJ:  cpu time    0.0637: real time    0.0648
     EDDAV:  cpu time   25.9014: real time   26.0071
       DOS:  cpu time    0.0077: real time    0.0085
    --------------------------------------------
      LOOP:  cpu time   26.2814: real time   26.7178

 eigenvalue-minimisations  :  9984
 total energy-change (2. order) : 0.4548486E+04  (-0.2989406E+05)
 number of electron     600.0000000 magnetization      16.0000000
 augmentation part      600.0000000 magnetization      16.0000000

 Free energy of the ion-electron system (eV)
  ---------------------------------------------------
  alpha Z        PSCENC =       807.12560372
  Ewald energy   TEWEN  =      4754.19778422
  -Hartree energ DENC   =    -29731.73417759
  -exchange      EXHF   =         0.00000000
  -V(xc)+E(xc)   XCENC  =      2066.10930574
  PAW double counting   =     21424.79691592   -21559.01982888
  entropy T*S    EENTRO =        -0.03308926
  eigenvalues    EBANDS =     -1028.56066125
  atomic energy  EATOM  =     27815.60422923
  Solvation  Ediel_sol  =         0.00000000
  ---------------------------------------------------
  free energy    TOTEN  =      4548.48608184 eV

  energy without entropy =     4548.51917110  energy(sigma->0) =     4548.50262647


--------------------------------------------------------------------------------------------------------




--------------------------------------- Iteration      1(   2)  ---------------------------------------


     EDDAV:  cpu time   30.5564: real time   30.5870
       DOS:  cpu time    0.0060: real time    0.0060
    --------------------------------------------
      LOOP:  cpu time   30.5624: real time   30.5930

 eigenvalue-minimisations  : 12096
 total energy-change (2. order) :-0.5228788E+04  (-0.4951329E+04)
 number of electron     600.0000000 magnetization      16.0000000
 augmentation part      600.0000000 magnetization      16.0000000

 Free energy of the ion-electron system (eV)
  ---------------------------------------------------
  alpha Z        PSCENC =       807.12560372
  Ewald energy   TEWEN  =      4754.19778422
  -Hartree energ DENC   =    -29731.73417759
  -exchange      EXHF   =         0.00000000
  -V(xc)+E(xc)   XCENC  =      2066.10930574
  PAW double counting   =     21424.79691592   -21559.01982888
  entropy T*S    EENTRO =        -0.01602962
  eigenvalues    EBANDS =     -6257.36536545
  atomic energy  EATOM  =     27815.60422923
  Solvation  Ediel_sol  =         0.00000000
  ---------------------------------------------------
  free energy    TOTEN  =      -680.30156271 eV

  energy without entropy =     -680.28553310  energy(sigma->0) =     -680.29354790


--------------------------------------------------------------------------------------------------------




--------------------------------------- Iteration      1(   3)  ---------------------------------------


     EDDAV:  cpu time   31.1327: real time   31.1647
       DOS:  cpu time    0.0127: real time    0.0127
    --------------------------------------------
      LOOP:  cpu time   31.1453: real time   31.1773

 eigenvalue-minimisations  : 12320
 total energy-change (2. order) :-0.5936995E+03  (-0.5837610E+03)
 number of electron     600.0000000 magnetization      16.0000000
 augmentation part      600.0000000 magnetization      16.0000000

 Free energy of the ion-electron system (eV)
  ---------------------------------------------------
  alpha Z        PSCENC =       807.12560372
  Ewald energy   TEWEN  =      4754.19778422
  -Hartree energ DENC   =    -29731.73417759
  -exchange      EXHF   =         0.00000000
  -V(xc)+E(xc)   XCENC  =      2066.10930574
  PAW double counting   =     21424.79691592   -21559.01982888
  entropy T*S    EENTRO =        -0.07948454
  eigenvalues    EBANDS =     -6851.00140171
  atomic energy  EATOM  =     27815.60422923
  Solvation  Ediel_sol  =         0.00000000
  ---------------------------------------------------
  free energy    TOTEN  =     -1274.00105390 eV

  energy without entropy =    -1273.92156935  energy(sigma->0) =    -1273.96131163


--------------------------------------------------------------------------------------------------------




--------------------------------------- Iteration      1(   4)  ---------------------------------------


     EDDAV:  cpu time   34.0007: real time   34.0361
       DOS:  cpu time    0.0068: real time    0.0068
    --------------------------------------------
      LOOP:  cpu time   34.0075: real time   34.0429

 eigenvalue-minimisations  : 14208
 total energy-change (2. order) :-0.2155228E+02  (-0.2139346E+02)
 number of electron     600.0000000 magnetization      16.0000000
 augmentation part      600.0000000 magnetization      16.0000000

 Free energy of the ion-electron system (eV)
  ---------------------------------------------------
  alpha Z        PSCENC =       807.12560372
  Ewald energy   TEWEN  =      4754.19778422
  -Hartree energ DENC   =    -29731.73417759
  -exchange      EXHF   =         0.00000000
  -V(xc)+E(xc)   XCENC  =      2066.10930574
  PAW double counting   =     21424.79691592   -21559.01982888
  entropy T*S    EENTRO =        -0.08750249
  eigenvalues    EBANDS =     -6872.54566124
  atomic energy  EATOM  =     27815.60422923
  Solvation  Ediel_sol  =         0.00000000
  ---------------------------------------------------
  free energy    TOTEN  =     -1295.55333138 eV

  energy without entropy =    -1295.46582889  energy(sigma->0) =    -1295.50958013


--------------------------------------------------------------------------------------------------------




--------------------------------------- Iteration      1(   5)  ---------------------------------------


     EDDAV:  cpu time   33.6819: real time   33.7167
       DOS:  cpu time    0.0064: real time    0.0064
    --------------------------------------------
      LOOP:  cpu time   33.6883: real time   33.7231

 eigenvalue-minimisations  : 13664
 total energy-change (2. order) :-0.5040878E+00  (-0.5031197E+00)
 number of electron     600.0000000 magnetization      16.0000000
 augmentation part      600.0000000 magnetization      16.0000000

 Free energy of the ion-electron system (eV)
  ---------------------------------------------------
  alpha Z        PSCENC =       807.12560372
  Ewald energy   TEWEN  =      4754.19778422
  -Hartree energ DENC   =    -29731.73417759
  -exchange      EXHF   =         0.00000000
  -V(xc)+E(xc)   XCENC  =      2066.10930574
  PAW double counting   =     21424.79691592   -21559.01982888
  entropy T*S    EENTRO =        -0.08725689
  eigenvalues    EBANDS =     -6873.04999468
  atomic energy  EATOM  =     27815.60422923
  Solvation  Ediel_sol  =         0.00000000
  ---------------------------------------------------
  free energy    TOTEN  =     -1296.05741922 eV

  energy without entropy =    -1295.97016233  energy(sigma->0) =    -1296.01379078


--------------------------------------------------------------------------------------------------------




--------------------------------------- Iteration      1(   6)  ---------------------------------------


     EDDAV:  cpu time   35.5284: real time   35.5690
       DOS:  cpu time    0.0061: real time    0.0061
    --------------------------------------------
      LOOP:  cpu time   35.5345: real time   35.5751

 eigenvalue-minimisations  : 14976
 total energy-change (2. order) :-0.2832245E-01  (-0.2831249E-01)
 number of electron     600.0000000 magnetization      16.0000000
 augmentation part      600.0000000 magnetization      16.0000000

 Free energy of the ion-electron system (eV)
  ---------------------------------------------------
  alpha Z        PSCENC =       807.12560372
  Ewald energy   TEWEN  =      4754.19778422
  -Hartree energ DENC   =    -29731.73417759
  -exchange      EXHF   =         0.00000000
  -V(xc)+E(xc)   XCENC  =      2066.10930574
  PAW double counting   =     21424.79691592   -21559.01982888
  entropy T*S    EENTRO =        -0.08723891
  eigenvalues    EBANDS =     -6873.07833511
  atomic energy  EATOM  =     27815.60422923
  Solvation  Ediel_sol  =         0.00000000
  ---------------------------------------------------
  free energy    TOTEN  =     -1296.08574167 eV

  energy without entropy =    -1295.99850276  energy(sigma->0) =    -1296.04212221


--------------------------------------------------------------------------------------------------------




--------------------------------------- Iteration      1(   7)  ---------------------------------------


     EDDAV:  cpu time   33.3129: real time   33.3503
       DOS:  cpu time    0.0060: real time    0.0060
    --------------------------------------------
      LOOP:  cpu time   33.3189: real time   33.3564

 eigenvalue-minimisations  : 13824
 total energy-change (2. order) :-0.5874476E-03  (-0.5871406E-03)
 number of electron     600.0000000 magnetization      16.0000000
 augmentation part      600.0000000 magnetization      16.0000000

 Free energy of the ion-electron system (eV)
  ---------------------------------------------------
  alpha Z        PSCENC =       807.12560372
  Ewald energy   TEWEN  =      4754.19778422
  -Hartree energ DENC   =    -29731.73417759
  -exchange      EXHF   =         0.00000000
  -V(xc)+E(xc)   XCENC  =      2066.10930574
  PAW double counting   =     21424.79691592   -21559.01982888
  entropy T*S    EENTRO =        -0.08723745
  eigenvalues    EBANDS =     -6873.07892402
  atomic energy  EATOM  =     27815.60422923
  Solvation  Ediel_sol  =         0.00000000
  ---------------------------------------------------
  free energy    TOTEN  =     -1296.08632911 eV

  energy without entropy =    -1295.99909167  energy(sigma->0) =    -1296.04271039


--------------------------------------------------------------------------------------------------------




--------------------------------------- Iteration      1(   8)  ---------------------------------------


     EDDAV:  cpu time   36.3184: real time   36.3557
       DOS:  cpu time    0.0062: real time    0.0062
    CHARGE:  cpu time    1.0503: real time    1.0581
    MIXING:  cpu time    0.0131: real time    0.0146
    --------------------------------------------
      LOOP:  cpu time   37.3880: real time   37.4346

 eigenvalue-minimisations  : 14880
 total energy-change (2. order) :-0.2350607E-04  (-0.2349340E-04)
 number of electron     599.9999986 magnetization      16.0373609
 augmentation part       33.3280606 magnetization       4.8813198

 Broyden mixing:
  rms(total) = 0.88597E+01    rms(broyden)= 0.88592E+01
  rms(prec ) = 0.94133E+01
  weight for this iteration     100.00

 Free energy of the ion-electron system (eV)
  ---------------------------------------------------
  alpha Z        PSCENC =       807.12560372
  Ewald energy   TEWEN  =      4754.19778422
  -Hartree energ DENC   =    -29731.73417759
  -exchange      EXHF   =         0.00000000
  -V(xc)+E(xc)   XCENC  =      2066.10930574
  PAW double counting   =     21424.79691592   -21559.01982888
  entropy T*S    EENTRO =        -0.08723732
  eigenvalues    EBANDS =     -6873.07894766
  atomic energy  EATOM  =     27815.60422923
  Solvation  Ediel_sol  =         0.00000000
  ---------------------------------------------------
  free energy    TOTEN  =     -1296.08635262 eV

  energy without entropy =    -1295.99911530  energy(sigma->0) =    -1296.04273396


--------------------------------------------------------------------------------------------------------




--------------------------------------- Iteration      1(   9)  ---------------------------------------


    POTLOK:  cpu time    0.2493: real time    0.2493
    SETDIJ:  cpu time    0.0609: real time    0.0618
     EDDAV:  cpu time   38.7195: real time   38.7591
       DOS:  cpu time    0.0065: real time    0.0065
[...]
      8.81878     15.23193      3.21376         0.001913     -0.001068     -0.001836
      6.76476      9.75536      5.59710         0.000441      0.000267      0.001824
     11.45726     32.15534      5.09546         0.002673      0.001315      0.001109
      8.87323     10.16006      3.75343         0.000671      0.001367      0.003135
      5.34463     15.76375      4.16228         0.003620      0.002368      0.003558
      0.64335     26.11446      6.53867         0.000142      0.001060      0.003860
      9.27757     26.35670      1.91049         0.002283      0.000262     -0.001399
     10.56262     30.20689      2.65691        -0.000630     -0.000063     -0.002904
     11.23590     30.44771      3.83078        -0.002626     -0.001071     -0.002285
     10.52908     27.90856      6.19317         0.001568     -0.000112      0.000250
      7.60153     14.02593      4.49453         0.003247     -0.002910     -0.000039
      6.96024     11.09169      1.30173        -0.000922      0.001127      0.000241
      0.86600     27.44417      2.24714         0.000108     -0.000556     -0.000110
      6.92901     14.26365      5.66951         0.001566      0.000566     -0.001367
      7.63150     11.34298      2.47480        -0.001341      0.000852     -0.001311
      5.15304     14.05453      2.89447        -0.001243     -0.000016     -0.001095
      1.53929     27.68163      3.42176         0.002059      0.002656     -0.002134
      0.90375     30.61798      6.61592         0.000093     -0.002821     -0.000211
      5.18692     11.26149      4.08371        -0.003152     -0.000743      0.000780
     11.20017     27.65445      5.02071        -0.000155      0.001937      0.000146
      1.57307     30.36529      5.44204         0.000970     -0.004372      0.001153
      4.51391     11.50115      5.25800        -0.001915     -0.001377      0.001035
      4.48293     13.80365      1.72076         0.000880      0.000209     -0.001644
      9.80815      0.94273      1.41282        -0.000673      0.002075     -0.002193
      9.70661     24.43827      5.58892         0.000150     -0.000766      0.001159
      8.35612     17.51048      5.10478         0.000450     -0.000477      0.001230
      8.43838      7.86868      1.87211         0.001526     -0.000226     -0.001205
      2.29593     24.19788      2.80923         0.000205      0.002189      0.000696
      3.66667     17.27443      2.32916         0.002594      0.001004     -0.000820
      2.39091      1.09083      4.19284        -0.000631      0.000688     -0.001922
      3.75385      8.01760      4.65065         0.001137      0.001017      0.001310
      8.52277      0.56815      3.28660        -0.001858      0.000920      0.000960
     11.13416      1.70537      5.12376        -0.002725     -0.001293     -0.003387
     11.02515     23.67004      1.87897         0.000792     -0.002438     -0.000418
      7.03019     17.90110      3.25826         0.003161      0.000293     -0.001409
      7.11504      7.47763      3.72038         0.004770      0.001574     -0.000090
      3.58336     24.95427      6.49651        -0.000881     -0.003109     -0.000918
      9.63764     16.75764      1.41967         0.003189     -0.000394      0.000222
      9.73174      8.62204      5.56241        -0.002028     -0.005889      0.000643
      2.38804     16.89392      4.20654        -0.000204      0.004621     -0.005446
      0.97212     23.80406      4.65623         0.001954      0.000915      0.001773
      1.07223      1.47834      2.34065        -0.002441      0.001272     -0.005521
      5.07676      7.25511      0.93889         0.000771     -0.000679      0.002116
      8.41349     24.81906      3.72159         0.001632     -0.002547      0.000743
      3.67228      0.34249      0.50874         0.001639     -0.000614     -0.000785
      2.46714      8.39197      2.77794        -0.000635     -0.003021      0.001713
      4.98166     18.04360      6.03350         0.001325      0.004723      0.003263
 -----------------------------------------------------------------------------------
    total drift:                                0.012572     -0.013083     -0.020763


--------------------------------------------------------------------------------------------------------



  FREE ENERGIE OF THE ION-ELECTRON SYSTEM (eV)
  ---------------------------------------------------
  free  energy   TOTEN  =     -1186.91992543 eV

  energy  without entropy=    -1186.89197302  energy(sigma->0) =    -1186.90594922
 


--------------------------------------------------------------------------------------------------------


    POTLOK:  cpu time    0.4892: real time    0.4900


--------------------------------------------------------------------------------------------------------




--------------------------------------------------------------------------------------------------------


  
 reached required accuracy - stopping structural energy minimisation
 writing wavefunctions
     LOOP+:  cpu time 1679.4469: real time 1683.7015
    4ORBIT:  cpu time    0.0000: real time    0.0000
 


 total charge     
 
# of ion       s       p       d       tot
------------------------------------------
    1        0.868   1.765   0.000   2.633
    2        0.872   1.775   0.000   2.647
    3        0.868   1.765   0.000   2.633
    4        0.868   1.765   0.000   2.633
    5        0.872   1.775   0.000   2.647
    6        0.872   1.775   0.000   2.647
    7        0.872   1.776   0.000   2.648
    8        0.868   1.765   0.000   2.633
    9        0.872   1.776   0.000   2.648
   10        0.868   1.765   0.000   2.633
   11        0.872   1.775   0.000   2.647
   12        0.872   1.776   0.000   2.648
   13        0.872   1.776   0.000   2.647
   14        0.868   1.765   0.000   2.633
   15        0.868   1.765   0.000   2.633
   16        0.868   1.765   0.000   2.633
   17        0.863   1.718   0.000   2.582
   18        0.863   1.716   0.000   2.579
   19        0.863   1.716   0.000   2.580
   20        0.863   1.716   0.000   2.579
   21        0.863   1.716   0.000   2.580
   22        0.864   1.718   0.000   2.582
   23        0.864   1.718   0.000   2.582
   24        0.863   1.717   0.000   2.581
   25        0.863   1.718   0.000   2.581
   26        0.863   1.716   0.000   2.579
   27        0.863   1.716   0.000   2.580
   28        0.863   1.716   0.000   2.580
   29        0.863   1.718   0.000   2.581
   30        0.863   1.718   0.000   2.581
   31        0.863   1.718   0.000   2.582
   32        0.863   1.716   0.000   2.580
   33        0.866   1.784   0.000   2.650
   34        0.866   1.784   0.000   2.649
   35        0.866   1.784   0.000   2.650
   36        0.866   1.784   0.000   2.649
   37        0.866   1.784   0.000   2.650
   38        0.866   1.784   0.000   2.650
   39        0.866   1.784   0.000   2.650
   40        0.865   1.783   0.000   2.649
   41        0.866   1.784   0.000   2.649
   42        0.866   1.784   0.000   2.650
   43        0.866   1.784   0.000   2.650
   44        0.866   1.784   0.000   2.650
   45        0.865   1.783   0.000   2.649
   46        0.866   1.784   0.000   2.649
   47        0.866   1.784   0.000   2.650
   48        0.866   1.784   0.000   2.650
   49        0.870   1.767   0.000   2.636
   50        0.870   1.768   0.000   2.638
   51        0.870   1.768   0.000   2.638
   52        0.870   1.768   0.000   2.638
   53        0.870   1.768   0.000   2.638
   54        0.870   1.767   0.000   2.637
   55        0.870   1.767   0.000   2.637
   56        0.870   1.767   0.000   2.636
   57        0.870   1.767   0.000   2.636
   58        0.870   1.768   0.000   2.638
   59        0.870   1.768   0.000   2.638
   60        0.870   1.768   0.000   2.638
   61        0.870   1.767   0.000   2.636
   62        0.870   1.767   0.000   2.637
   63        0.870   1.767   0.000   2.637
   64        0.870   1.768   0.000   2.638
   65        0.849   1.792   0.000   2.640
   66        0.849   1.791   0.000   2.640
   67        0.849   1.792   0.000   2.640
   68        0.849   1.791   0.000   2.640
   69        0.849   1.792   0.000   2.640
   70        0.849   1.792   0.000   2.640
   71        0.849   1.791   0.000   2.640
   72        0.849   1.792   0.000   2.640
   73        0.865   1.790   0.000   2.655
   74        0.865   1.790   0.000   2.655
   75        0.865   1.790   0.000   2.655
   76        0.865   1.790   0.000   2.655
   77        0.865   1.790   0.000   2.656
   78        0.865   1.790   0.000   2.656
   79        0.866   1.790   0.000   2.656
   80        0.865   1.790   0.000   2.656
   81        0.389   0.487   6.040   6.915
   82        0.389   0.487   6.040   6.915
   83        0.389   0.487   6.040   6.915
   84        0.389   0.487   6.040   6.915
   85        0.638   0.048   0.000   0.686
   86        0.637   0.048   0.000   0.685
   87        0.637   0.048   0.000   0.685
   88        0.637   0.048   0.000   0.685
   89        0.637   0.048   0.000   0.685
   90        0.638   0.048   0.000   0.686
   91        0.638   0.048   0.000   0.686
   92        0.638   0.048   0.000   0.686
   93        0.638   0.048   0.000   0.686
   94        0.637   0.048   0.000   0.685
   95        0.637   0.048   0.000   0.685
   96        0.637   0.048   0.000   0.685
   97        0.638   0.048   0.000   0.686
   98        0.638   0.048   0.000   0.687
   99        0.638   0.048   0.000   0.686
  100        0.637   0.048   0.000   0.685
  101        0.633   0.051   0.000   0.684
  102        0.633   0.051   0.000   0.684
  103        0.630   0.050   0.000   0.679
  104        0.630   0.050   0.000   0.679
  105        0.633   0.051   0.000   0.684
  106        0.630   0.050   0.000   0.679
  107        0.630   0.050   0.000   0.679
  108        0.633   0.051   0.000   0.684
  109        0.630   0.050   0.000   0.680
  110        0.630   0.050   0.000   0.679
  111        0.633   0.051   0.000   0.684
  112        0.633   0.051   0.000   0.684
  113        0.630   0.050   0.000   0.680
  114        0.633   0.051   0.000   0.684
  115        0.633   0.050   0.000   0.684
  116        0.630   0.050   0.000   0.679
  117        1.241   2.600   0.000   3.841
  118        1.240   2.607   0.000   3.848
  119        1.241   2.600   0.000   3.841
  120        1.241   2.600   0.000   3.841
  121        1.240   2.607   0.000   3.847
  122        1.240   2.607   0.000   3.848
  123        1.240   2.607   0.000   3.848
  124        1.241   2.600   0.000   3.841
  125        1.240   2.607   0.000   3.847
  126        1.241   2.600   0.000   3.841
  127        1.240   2.607   0.000   3.847
  128        1.240   2.607   0.000   3.848
  129        1.240   2.607   0.000   3.847
  130        1.241   2.600   0.000   3.841
  131        1.241   2.600   0.000   3.841
  132        1.241   2.600   0.000   3.841
  133        1.211   2.730   0.000   3.941
  134        1.211   2.729   0.000   3.941
  135        1.211   2.730   0.000   3.941
  136        1.211   2.729   0.000   3.941
  137        1.211   2.730   0.000   3.941
  138        1.211   2.730   0.000   3.941
  139        1.211   2.729   0.000   3.941
  140        1.211   2.730   0.000   3.941
  141        1.585   3.539   0.000   5.123
  142        1.584   3.541   0.000   5.125
  143        1.584   3.541   0.000   5.125
  144        1.584   3.541   0.000   5.125
  145        1.584   3.541   0.000   5.125
  146        1.585   3.539   0.000   5.123
  147        1.585   3.539   0.000   5.123
  148        1.585   3.538   0.000   5.122
  149        1.585   3.538   0.000   5.123
  150        1.584   3.541   0.000   5.125
  151        1.584   3.541   0.000   5.125
  152        1.584   3.541   0.000   5.125
  153        1.585   3.538   0.000   5.122
  154        1.585   3.538   0.000   5.123
  155        1.585   3.539   0.000   5.123
  156        1.584   3.541   0.000   5.125
--------------------------------------------------
tot        145.965 264.919  24.159 435.043
 


 magnetization (x)
 
# of ion       s       p       d       tot
------------------------------------------
    1        0.003   0.020   0.000   0.023
    2        0.003   0.019   0.000   0.022
    3        0.003   0.020   0.000   0.023
    4        0.003   0.020   0.000   0.023
    5        0.003   0.019   0.000   0.022
    6        0.003   0.019   0.000   0.022
    7        0.003   0.019   0.000   0.022
    8        0.003   0.020   0.000   0.023
    9        0.003   0.019   0.000   0.022
   10        0.003   0.020   0.000   0.023
   11        0.003   0.019   0.000   0.022
   12        0.003   0.019   0.000   0.022
   13        0.003   0.019   0.000   0.022
   14        0.003   0.020   0.000   0.023
   15        0.003   0.020   0.000   0.023
   16        0.003   0.020   0.000   0.023
   17        0.000   0.001   0.000   0.001
   18        0.000   0.001   0.000   0.002
   19        0.000   0.001   0.000   0.002
   20        0.000   0.001   0.000   0.002
   21        0.000   0.001   0.000   0.002
   22        0.000   0.001   0.000   0.001
   23        0.000   0.001   0.000   0.001
   24        0.000   0.001   0.000   0.001
   25        0.000   0.001   0.000   0.001
   26        0.000   0.001   0.000   0.002
   27        0.000   0.001   0.000   0.002
   28        0.000   0.001   0.000   0.002
   29        0.000   0.001   0.000   0.001
   30        0.000   0.001   0.000   0.001
   31        0.000   0.001   0.000   0.001
   32        0.000   0.001   0.000   0.002
   33        0.000   0.001   0.000   0.001
   34        0.000   0.001   0.000   0.001
   35        0.000   0.001   0.000   0.001
   36        0.000   0.001   0.000   0.001
   37        0.000   0.001   0.000   0.001
   38        0.000   0.001   0.000   0.001
   39        0.000   0.001   0.000   0.001
   40        0.000   0.001   0.000   0.001
   41        0.000   0.001   0.000   0.001
   42        0.000   0.001   0.000   0.001
   43        0.000   0.001   0.000   0.001
   44        0.000   0.001   0.000   0.001
   45        0.000   0.001   0.000   0.001
   46        0.000   0.001   0.000   0.001
   47        0.000   0.001   0.000   0.001
   48        0.000   0.001   0.000   0.001
   49        0.000   0.001   0.000   0.001
   50        0.000   0.001   0.000   0.001
   51        0.000   0.001   0.000   0.001
   52        0.000   0.001   0.000   0.001
   53        0.000   0.001   0.000   0.001
   54        0.000   0.001   0.000   0.001
   55        0.000   0.001   0.000   0.001
   56        0.000   0.001   0.000   0.001
   57        0.000   0.001   0.000   0.001
   58        0.000   0.001   0.000   0.001
   59        0.000   0.001   0.000   0.001
   60        0.000   0.001   0.000   0.001
   61        0.000   0.001   0.000   0.001
   62        0.000   0.001   0.000   0.001
   63        0.000   0.001   0.000   0.001
   64        0.000   0.001   0.000   0.001
   65        0.002   0.016   0.000   0.018
   66        0.002   0.016   0.000   0.018
   67        0.002   0.016   0.000   0.018
   68        0.002   0.016   0.000   0.018
   69        0.002   0.016   0.000   0.018
   70        0.002   0.016   0.000   0.018
   71        0.002   0.016   0.000   0.018
   72        0.002   0.016   0.000   0.018
   73       -0.000   0.000   0.000   0.000
   74       -0.000   0.000   0.000   0.000
   75       -0.000   0.000   0.000   0.000
   76       -0.000   0.000   0.000   0.000
   77       -0.000   0.000   0.000   0.000
   78       -0.000   0.000   0.000   0.000
   79       -0.000   0.000   0.000   0.000
   80       -0.000   0.000   0.000   0.000
   81        0.016   0.058   3.425   3.499
   82        0.016   0.058   3.425   3.499
   83        0.016   0.058   3.425   3.499
   84        0.016   0.058   3.425   3.499
   85       -0.000   0.000   0.000  -0.000
   86       -0.000   0.000   0.000  -0.000
   87       -0.000   0.000   0.000  -0.000
   88       -0.000   0.000   0.000  -0.000
   89       -0.000   0.000   0.000  -0.000
   90       -0.000   0.000   0.000  -0.000
   91       -0.000   0.000   0.000  -0.000
   92       -0.000   0.000   0.000  -0.000
   93       -0.000   0.000   0.000  -0.000
   94       -0.000   0.000   0.000  -0.000
   95       -0.000   0.000   0.000  -0.000
   96       -0.000   0.000   0.000  -0.000
   97       -0.000   0.000   0.000  -0.000
   98       -0.000   0.000   0.000  -0.000
   99       -0.000   0.000   0.000  -0.000
  100       -0.000   0.000   0.000  -0.000
  101       -0.000   0.000   0.000   0.000
  102       -0.000   0.000   0.000   0.000
  103       -0.000   0.000   0.000   0.000
  104       -0.000   0.000   0.000   0.000
  105       -0.000   0.000   0.000   0.000
  106       -0.000   0.000   0.000   0.000
  107       -0.000   0.000   0.000   0.000
  108       -0.000   0.000   0.000   0.000
  109       -0.000   0.000   0.000   0.000
  110       -0.000   0.000   0.000   0.000
  111       -0.000   0.000   0.000   0.000
  112       -0.000   0.000   0.000   0.000
  113       -0.000   0.000   0.000   0.000
  114       -0.000   0.000   0.000   0.000
  115       -0.000   0.000   0.000   0.000
  116       -0.000   0.000   0.000   0.000
  117        0.012   0.038   0.000   0.049
  118        0.015   0.050   0.000   0.065
  119        0.011   0.038   0.000   0.049
  120        0.011   0.038   0.000   0.049
  121        0.015   0.050   0.000   0.065
  122        0.015   0.050   0.000   0.065
  123        0.015   0.050   0.000   0.065
  124        0.011   0.038   0.000   0.049
  125        0.015   0.050   0.000   0.065
  126        0.011   0.038   0.000   0.049
  127        0.015   0.050   0.000   0.065
  128        0.015   0.050   0.000   0.065
  129        0.015   0.050   0.000   0.065
  130        0.011   0.038   0.000   0.049
  131        0.011   0.038   0.000   0.049
  132        0.012   0.038   0.000   0.049
  133        0.000   0.000   0.000   0.000
  134        0.000   0.000   0.000   0.000
  135        0.000   0.000   0.000   0.000
  136        0.000   0.000   0.000   0.000
  137        0.000   0.000   0.000   0.000
  138        0.000   0.000   0.000   0.000
  139        0.000   0.000   0.000   0.000
  140        0.000   0.000   0.000   0.000
  141        0.000   0.003   0.000   0.003
  142        0.000   0.002   0.000   0.002
  143        0.000   0.002   0.000   0.002
  144        0.000   0.002   0.000   0.002
  145        0.000   0.002   0.000   0.002
  146        0.000   0.003   0.000   0.003
  147        0.000   0.003   0.000   0.003
  148        0.000   0.003   0.000   0.003
  149        0.000   0.003   0.000   0.003
  150        0.000   0.002   0.000   0.002
  151        0.000   0.002   0.000   0.002
  152        0.000   0.002   0.000   0.002
  153        0.000   0.003   0.000   0.003
  154        0.000   0.003   0.000   0.003
  155        0.000   0.003   0.000   0.003
  156        0.000   0.002   0.000   0.002
--------------------------------------------------
tot          0.342   1.470  13.699  15.511
 

 total amount of memory used by VASP MPI-rank0   109306. kBytes
=======================================================================

   base      :      30000. kBytes
   nonlr-proj:       7404. kBytes
   fftplans  :       6265. kBytes
   grid      :      17779. kBytes
   one-center:       1213. kBytes
   wavefun   :      46645. kBytes
 
  
  
 General timing and accounting informations for this job:
 ========================================================
  
                  Total CPU time used (sec):     1893.301
                            User time (sec):     1781.418
                          System time (sec):      111.883
                         Elapsed time (sec):     1907.874
  
                   Maximum memory used (kb):     1057504.
                   Average memory used (kb):           0.
  
                          Minor page faults:        87056
                          Major page faults:            6
                 Voluntary context switches:        30863
