       N       E                     dE             d eps       ncg     rms          rms(c)
RMM:   1     0.816449924031E+04    0.81645E+04   -0.22386E+05  1200   0.125E+03
RMM:   2     0.308814111546E+04   -0.50764E+04   -0.67499E+04  1200   0.279E+02
RMM:   3     0.985501789194E+03   -0.21026E+04   -0.29093E+04  1200   0.181E+02
RMM:   4    -0.390219916719E+03   -0.13757E+04   -0.13767E+04  1200   0.151E+02
RMM:   5    -0.953758453030E+03   -0.56354E+03   -0.50019E+03  1200   0.970E+01
RMM:   6    -0.114551686265E+04   -0.19176E+03   -0.16726E+03  1200   0.597E+01
RMM:   7    -0.120488015063E+04   -0.59363E+02   -0.54989E+02  1200   0.340E+01
RMM:   8    -0.122685133819E+04   -0.21971E+02   -0.19223E+02  1200   0.208E+01
RMM:   9    -0.123915407642E+04   -0.12303E+02   -0.11787E+02  2828   0.122E+01
RMM:  10    -0.124000020290E+04   -0.84613E+00   -0.81940E+00  3213   0.367E+00
RMM:  11    -0.124004981256E+04   -0.49610E-01   -0.39884E-01  2861   0.725E-01
RMM:  12    -0.124005245056E+04   -0.26380E-02   -0.25405E-02  3203   0.201E-01    0.577E+01
RMM:  13    -0.116816645702E+04    0.71886E+02   -0.16172E+02  2400   0.164E+01    0.321E+01
RMM:  14    -0.115323391788E+04    0.14933E+02   -0.43936E+01  2400   0.851E+00    0.149E+01
RMM:  15    -0.115163482993E+04    0.15991E+01   -0.10341E+01  2401   0.445E+00    0.498E+00
RMM:  16    -0.115140381018E+04    0.23102E+00   -0.82326E-01  2472   0.141E+00    0.143E+00
RMM:  17    -0.115137326252E+04    0.30548E-01   -0.16472E-01  2413   0.665E-01    0.499E-01
RMM:  18    -0.115136236919E+04    0.10893E-01   -0.57043E-02  2415   0.300E-01    0.289E-01
RMM:  19    -0.115136052848E+04    0.18407E-02   -0.13354E-02  2412   0.162E-01    0.149E-01
RMM:  20    -0.115136509618E+04   -0.45677E-02   -0.12855E-02  2400   0.131E-01    0.104E-01
RMM:  21    -0.115136756731E+04   -0.24711E-02   -0.59334E-03  2401   0.812E-02    0.813E-02
RMM:  22    -0.115137121984E+04   -0.36525E-02   -0.21797E-03  2400   0.575E-02    0.408E-02
RMM:  23    -0.115137353177E+04   -0.23119E-02   -0.41089E-04  2424   0.255E-02    0.284E-02
RMM:  24    -0.115137670575E+04   -0.31740E-02   -0.31460E-04  2424   0.216E-02    0.196E-02
RMM:  25    -0.115137884723E+04   -0.21415E-02   -0.23847E-04  2400   0.173E-02    0.114E-02
RMM:  26    -0.115137985420E+04   -0.10070E-02   -0.75105E-05  2239   0.863E-03    0.489E-03
RMM:  27    -0.115138028000E+04   -0.42579E-03   -0.28153E-05  2112   0.483E-03    0.307E-03
RMM:  28    -0.115138043919E+04   -0.15920E-03   -0.10427E-05  1959   0.308E-03    0.117E-03
RMM:  29    -0.115138048495E+04   -0.45755E-04   -0.24989E-06  1643   0.154E-03    0.640E-04
RMM:  30    -0.115138050281E+04   -0.17864E-04   -0.10365E-06  1487   0.102E-03    0.491E-04
RMM:  31    -0.115138050650E+04   -0.36849E-05   -0.33759E-07  1152   0.682E-04    0.346E-04
RMM:  32    -0.115138050769E+04   -0.11985E-05   -0.15382E-07  1096   0.514E-04    0.256E-04
RMM:  33    -0.115138050811E+04   -0.41402E-06   -0.58483E-08   858   0.378E-04
   1 F= -.11620217E+04 E0= -.11620217E+04  d E =-.116202E+04
