 vasp.6.0.8 29Jun18 (build Mar 14 2019 11:44:20) complex                        
  
 executed on             LinuxIFC date 2021.01.17  00:13:54
 running   64 mpi-ranks, with    1 threads/rank
 distrk:  each k-point on   64 cores,    1 groups
 distr:  one band on NCORES_PER_BAND=   4 cores,   16 groups


--------------------------------------------------------------------------------------------------------


 INCAR:
 POTCAR:    PAW_PBE C 08Apr2002                   
 POTCAR:    PAW_PBE Zn 06Sep2000                  
 POTCAR:    PAW_PBE H 15Jun2001                   
 POTCAR:    PAW_PBE N 08Apr2002                   
 POTCAR:    PAW_PBE O 08Apr2002                   
 POTCAR:    PAW_PBE C 08Apr2002                   
   VRHFIN =C: s2p2                                                              
   LEXCH  = PE                                                                  
   EATOM  =   147.1560 eV,   10.8157 Ry                                         
                                                                                
   TITEL  = PAW_PBE C 08Apr2002                                                 
   LULTRA =        F    use ultrasoft PP ?                                      
   IUNSCR =        1    unscreen: 0-lin 1-nonlin 2-no                           
   RPACOR =    1.200    partial core radius                                     
   POMASS =   12.011; ZVAL   =    4.000    mass and valenz                      
   RCORE  =    1.500    outmost cutoff radius                                   
   RWIGS  =    1.630; RWIGS  =    0.863    wigner-seitz radius (au A)           
   ENMAX  =  400.000; ENMIN  =  300.000 eV                                      
   ICORE  =        2    local potential                                         
   LCOR   =        T    correct aug charges                                     
   LPAW   =        T    paw PP                                                  
   EAUG   =  644.873                                                            
   DEXC   =    0.000                                                            
   RMAX   =    1.529    core radius for proj-oper                               
   RAUG   =    1.300    factor for augmentation sphere                          
   RDEP   =    1.501    radius for radial grids                                 
   RDEPT  =    1.300    core radius for aug-charge                              
                                                                                
   Atomic configuration                                                         
    4 entries                                                                   
     n  l   j            E        occ.                                          
     1  0  0.50      -273.3789   2.0000                                         
     2  0  0.50       -13.7508   2.0000                                         
     2  1  0.50        -5.2854   2.0000                                         
     3  2  1.50        -5.4423   0.0000                                         
   Description                                                                  
     l       E           TYP  RCUT    TYP  RCUT                                 
     0    -13.7508458     23  1.200                                             
     0     -8.2022199     23  1.200                                             
     1     -5.2854383     23  1.500                                             
     1     34.0145650     23  1.500                                             
     2     -5.4423304      7  1.500                                             
  local pseudopotential read in
  partial core-charges read in
  partial kinetic energy density read in
  atomic valenz-charges read in
  non local Contribution for L=           0  read in
    real space projection operators read in
  non local Contribution for L=           0  read in
    real space projection operators read in
  non local Contribution for L=           1  read in
    real space projection operators read in
  non local Contribution for L=           1  read in
    real space projection operators read in
    PAW grid and wavefunctions read in
 
   number of l-projection  operators is LMAX  =           4
   number of lm-projection operators is LMMAX =           8
 
 POTCAR:    PAW_PBE Zn 06Sep2000                  
   VRHFIN =Zn: d10 p2                                                           
   LEXCH  = PE                                                                  
   EATOM  =  1748.8345 eV,  128.5357 Ry                                         
                                                                                
   TITEL  = PAW_PBE Zn 06Sep2000                                                
   LULTRA =        F    use ultrasoft PP ?                                      
   IUNSCR =        1    unscreen: 0-lin 1-nonlin 2-no                           
   RPACOR =    2.000    partial core radius                                     
   POMASS =   65.390; ZVAL   =   12.000    mass and valenz                      
   RCORE  =    2.300    outmost cutoff radius                                   
   RWIGS  =    2.400; RWIGS  =    1.270    wigner-seitz radius (au A)           
   ENMAX  =  276.723; ENMIN  =  207.542 eV                                      
   RCLOC  =    1.828    cutoff for local pot                                    
   LCOR   =        T    correct aug charges                                     
   LPAW   =        T    paw PP                                                  
   EAUG   =  575.892                                                            
   DEXC   =    0.000                                                            
   RMAX   =    2.347    core radius for proj-oper                               
   RAUG   =    1.300    factor for augmentation sphere                          
   RDEP   =    2.324    radius for radial grids                                 
   RDEPT  =    1.788    core radius for aug-charge                              
                                                                                
   Atomic configuration                                                         
    9 entries                                                                   
     n  l   j            E        occ.                                          
     1  0  0.50     -9524.6913   2.0000                                         
     2  0  0.50     -1158.1882   2.0000                                         
     2  1  1.50     -1003.8506   6.0000                                         
     3  0  0.50      -129.2194   2.0000                                         
     3  1  1.50       -83.3890   6.0000                                         
     3  2  2.50       -10.1410  10.0000                                         
     4  0  0.50        -5.9785   2.0000                                         
     4  1  0.50        -4.0817   0.0000                                         
     4  3  2.50        -1.3606   0.0000                                         
   Description                                                                  
     l       E           TYP  RCUT    TYP  RCUT                                 
     2    -10.1410010     23  2.300                                             
     2    -11.5015836     23  2.300                                             
     0     -5.9785163     23  2.300                                             
     0      1.1858015     23  2.300                                             
     1     -2.7211652     23  2.300                                             
     1     13.2444212     23  2.300                                             
  local pseudopotential read in
  partial core-charges read in
  partial kinetic energy density read in
  atomic valenz-charges read in
  non local Contribution for L=           2  read in
    real space projection operators read in
  non local Contribution for L=           2  read in
    real space projection operators read in
  non local Contribution for L=           0  read in
    real space projection operators read in
  non local Contribution for L=           0  read in
    real space projection operators read in
  non local Contribution for L=           1  read in
    real space projection operators read in
  non local Contribution for L=           1  read in
    real space projection operators read in
    PAW grid and wavefunctions read in
 
   number of l-projection  operators is LMAX  =           6
   number of lm-projection operators is LMMAX =          18
 
 POTCAR:    PAW_PBE H 15Jun2001                   
   VRHFIN =H: ultrasoft test                                                    
   LEXCH  = PE                                                                  
   EATOM  =    12.4884 eV,    0.9179 Ry                                         
                                                                                
   TITEL  = PAW_PBE H 15Jun2001                                                 
   LULTRA =        F    use ultrasoft PP ?                                      
   IUNSCR =        0    unscreen: 0-lin 1-nonlin 2-no                           
   RPACOR =    0.000    partial core radius                                     
   POMASS =    1.000; ZVAL   =    1.000    mass and valenz                      
   RCORE  =    1.100    outmost cutoff radius                                   
   RWIGS  =    0.700; RWIGS  =    0.370    wigner-seitz radius (au A)           
   ENMAX  =  250.000; ENMIN  =  200.000 eV                                      
   RCLOC  =    0.701    cutoff for local pot                                    
   LCOR   =        T    correct aug charges                                     
   LPAW   =        T    paw PP                                                  
   EAUG   =  400.000                                                            
   RMAX   =    1.123    core radius for proj-oper                               
   RAUG   =    1.200    factor for augmentation sphere                          
   RDEP   =    1.112    radius for radial grids                                 
   RDEPT  =    0.926    core radius for aug-charge                              
                                                                                
   Atomic configuration                                                         
    2 entries                                                                   
     n  l   j            E        occ.                                          
     1  0  0.50        -6.4927   1.0000                                         
     2  1  0.50        -3.4015   0.0000                                         
   Description                                                                  
     l       E           TYP  RCUT    TYP  RCUT                                 
     0     -6.4927494     23  1.100                                             
     0      6.8029130     23  1.100                                             
     1     -4.0817478     23  1.100                                             
  local pseudopotential read in
  atomic valenz-charges read in
  non local Contribution for L=           0  read in
    real space projection operators read in
  non local Contribution for L=           0  read in
    real space projection operators read in
  non local Contribution for L=           1  read in
    real space projection operators read in
    PAW grid and wavefunctions read in
 
   number of l-projection  operators is LMAX  =           3
   number of lm-projection operators is LMMAX =           5
 
 POTCAR:    PAW_PBE N 08Apr2002                   
   VRHFIN =N: s2p3                                                              
   LEXCH  = PE                                                                  
   EATOM  =   264.5486 eV,   19.4438 Ry                                         
                                                                                
   TITEL  = PAW_PBE N 08Apr2002                                                 
   LULTRA =        F    use ultrasoft PP ?                                      
   IUNSCR =        1    unscreen: 0-lin 1-nonlin 2-no                           
   RPACOR =    1.200    partial core radius                                     
   POMASS =   14.001; ZVAL   =    5.000    mass and valenz                      
   RCORE  =    1.500    outmost cutoff radius                                   
   RWIGS  =    1.400; RWIGS  =    0.741    wigner-seitz radius (au A)           
   ENMAX  =  400.000; ENMIN  =  300.000 eV                                      
   ICORE  =        2    local potential                                         
   LCOR   =        T    correct aug charges                                     
   LPAW   =        T    paw PP                                                  
   EAUG   =  627.112                                                            
   DEXC   =    0.000                                                            
   RMAX   =    1.529    core radius for proj-oper                               
   RAUG   =    1.300    factor for augmentation sphere                          
   RDEP   =    1.514    radius for radial grids                                 
   RDEPT  =    1.338    core radius for aug-charge                              
                                                                                
   Atomic configuration                                                         
    4 entries                                                                   
     n  l   j            E        occ.                                          
     1  0  0.50      -384.7179   2.0000                                         
     2  0  0.50       -18.5828   2.0000                                         
     2  1  0.50        -7.0898   3.0000                                         
     3  2  1.50        -6.8029   0.0000                                         
   Description                                                                  
     l       E           TYP  RCUT    TYP  RCUT                                 
     0    -18.5828119     23  1.200                                             
     0    -13.5018863     23  1.200                                             
     1     -7.0897853     23  1.500                                             
     1      9.5240782     23  1.500                                             
     2     -6.8029130      7  1.500                                             
  local pseudopotential read in
  partial core-charges read in
  partial kinetic energy density read in
  atomic valenz-charges read in
  non local Contribution for L=           0  read in
    real space projection operators read in
  non local Contribution for L=           0  read in
    real space projection operators read in
  non local Contribution for L=           1  read in
    real space projection operators read in
  non local Contribution for L=           1  read in
    real space projection operators read in
    PAW grid and wavefunctions read in
 
   number of l-projection  operators is LMAX  =           4
   number of lm-projection operators is LMMAX =           8
 
 POTCAR:    PAW_PBE O 08Apr2002                   
   VRHFIN =O: s2p4                                                              
   LEXCH  = PE                                                                  
   EATOM  =   432.3788 eV,   31.7789 Ry                                         
                                                                                
   TITEL  = PAW_PBE O 08Apr2002                                                 
   LULTRA =        F    use ultrasoft PP ?                                      
   IUNSCR =        1    unscreen: 0-lin 1-nonlin 2-no                           
   RPACOR =    1.200    partial core radius                                     
   POMASS =   16.000; ZVAL   =    6.000    mass and valenz                      
   RCORE  =    1.520    outmost cutoff radius                                   
   RWIGS  =    1.550; RWIGS  =    0.820    wigner-seitz radius (au A)           
   ENMAX  =  400.000; ENMIN  =  300.000 eV                                      
   ICORE  =        2    local potential                                         
   LCOR   =        T    correct aug charges                                     
   LPAW   =        T    paw PP                                                  
   EAUG   =  605.392                                                            
   DEXC   =    0.000                                                            
   RMAX   =    1.553    core radius for proj-oper                               
   RAUG   =    1.300    factor for augmentation sphere                          
   RDEP   =    1.550    radius for radial grids                                 
   RDEPT  =    1.329    core radius for aug-charge                              
                                                                                
   Atomic configuration                                                         
    4 entries                                                                   
     n  l   j            E        occ.                                          
     1  0  0.50      -514.6923   2.0000                                         
     2  0  0.50       -23.9615   2.0000                                         
     2  1  0.50        -9.0305   4.0000                                         
     3  2  1.50        -9.5241   0.0000                                         
   Description                                                                  
     l       E           TYP  RCUT    TYP  RCUT                                 
     0    -23.9615318     23  1.200                                             
     0     -9.5240782     23  1.200                                             
     1     -9.0304911     23  1.520                                             
     1      8.1634956     23  1.520                                             
     2     -9.5240782      7  1.500                                             
  local pseudopotential read in
  partial core-charges read in
  partial kinetic energy density read in
  kinetic energy density of atom read in
  atomic valenz-charges read in
  non local Contribution for L=           0  read in
    real space projection operators read in
  non local Contribution for L=           0  read in
    real space projection operators read in
  non local Contribution for L=           1  read in
    real space projection operators read in
  non local Contribution for L=           1  read in
    real space projection operators read in
    PAW grid and wavefunctions read in
 
   number of l-projection  operators is LMAX  =           4
   number of lm-projection operators is LMMAX =           8
 
 Optimization of the real space projectors (new method)

 maximal supplied QI-value         = 25.13
 optimisation between [QCUT,QGAM] = [ 12.32, 24.88] = [ 42.47,173.37] Ry 
 Optimized for a Real-space Cutoff    1.06 Angstroem

   l    n(q)    QCUT    max X(q) W(low)/X(q) W(high)/X(q)  e(spline) 
   0      8    12.315   115.676    0.34E-03    0.18E-03    0.23E-06
   0      8    12.315    87.132    0.34E-03    0.18E-03    0.22E-06
   1      7    12.315     4.429    0.45E-03    0.12E-03    0.18E-06
   1      7    12.315     2.733    0.35E-03    0.97E-04    0.15E-06
 Optimization of the real space projectors (new method)

 maximal supplied QI-value         = 16.25
 optimisation between [QCUT,QGAM] = [ 12.51, 25.03] = [ 43.85,175.40] Ry 
 Optimized for a Real-space Cutoff    1.31 Angstroem

   l    n(q)    QCUT    max X(q) W(low)/X(q) W(high)/X(q)  e(spline) 
   2      9    12.514    46.356    0.36E-03    0.54E-03    0.48E-06
   2      9    12.514    41.843    0.37E-03    0.56E-03    0.49E-06
   0     10    12.514    48.958    0.13E-03    0.28E-03    0.23E-06
   0     10    12.514    32.776    0.12E-03    0.26E-03    0.22E-06
   1      9    12.514    17.787    0.44E-03    0.44E-04    0.36E-06
   1      9    12.514    14.435    0.39E-03    0.39E-04    0.32E-06
 Optimization of the real space projectors (new method)

 maximal supplied QI-value         = 34.20
 optimisation between [QCUT,QGAM] = [ 12.31, 24.97] = [ 42.46,174.58] Ry 
 Optimized for a Real-space Cutoff    1.00 Angstroem

   l    n(q)    QCUT    max X(q) W(low)/X(q) W(high)/X(q)  e(spline) 
   0      7    12.313    19.460    0.14E-03    0.42E-03    0.16E-06
   0      7    12.313    12.209    0.12E-03    0.40E-03    0.16E-06
   1      7    12.313     4.655    0.33E-03    0.59E-03    0.89E-07
 Optimization of the real space projectors (new method)

 maximal supplied QI-value         = 25.13
 optimisation between [QCUT,QGAM] = [ 12.32, 24.88] = [ 42.47,173.37] Ry 
 Optimized for a Real-space Cutoff    1.20 Angstroem

   l    n(q)    QCUT    max X(q) W(low)/X(q) W(high)/X(q)  e(spline) 
   0      9    12.315    79.467    0.14E-03    0.22E-04    0.37E-06
   0      9    12.315    66.151    0.14E-03    0.23E-04    0.36E-06
   1      8    12.315    22.077    0.30E-03    0.54E-03    0.45E-06
   1      8    12.315    15.894    0.30E-03    0.55E-03    0.45E-06
 Optimization of the real space projectors (new method)

 maximal supplied QI-value         = 24.76
 optimisation between [QCUT,QGAM] = [ 12.38, 25.00] = [ 42.90,175.06] Ry 
 Optimized for a Real-space Cutoff    1.13 Angstroem

   l    n(q)    QCUT    max X(q) W(low)/X(q) W(high)/X(q)  e(spline) 
   0      8    12.378    20.381    0.16E-03    0.54E-05    0.27E-06
   0      8    12.378    15.268    0.17E-03    0.61E-05    0.29E-06
   1      8    12.378     5.964    0.38E-03    0.23E-03    0.28E-06
   1      8    12.378     5.382    0.33E-03    0.20E-03    0.25E-06
  PAW_PBE C 08Apr2002                   :
 energy of atom  1       EATOM= -147.1560
 kinetic energy error for atom=    0.0057 (will be added to EATOM!!)
  PAW_PBE Zn 06Sep2000                  :
 energy of atom  2       EATOM=-1748.8345
 kinetic energy error for atom=    0.0020 (will be added to EATOM!!)
  PAW_PBE H 15Jun2001                   :
 energy of atom  3       EATOM=  -12.4884
 kinetic energy error for atom=    0.0004 (will be added to EATOM!!)
  PAW_PBE N 08Apr2002                   :
 energy of atom  4       EATOM= -264.5486
 kinetic energy error for atom=    0.0103 (will be added to EATOM!!)
  PAW_PBE O 08Apr2002                   :
 energy of atom  5       EATOM= -432.3788
 kinetic energy error for atom=    0.0168 (will be added to EATOM!!)
 
 
 POSCAR: Zn_H
  positions in direct lattice
  velocities in cartesian coordinates
 exchange correlation table for  LEXCH =        8
   RHO(1)=    0.500       N(1)  =     2000
   RHO(2)=  100.500       N(2)  =     4000
 


--------------------------------------------------------------------------------------------------------


 ion  position               nearest neighbor table
   1  0.939  0.970  0.165- 107 1.09 117 1.34  65 1.40
   2  0.886  0.953  0.424- 112 1.09 118 1.35  65 1.40
   3  0.938  0.786  0.879- 116 1.09 119 1.34  66 1.40
   4  0.561  0.470  0.666- 110 1.09 120 1.34  67 1.40
   5  0.614  0.303  0.121- 111 1.09 121 1.35  68 1.40
   6  0.114  0.803  0.120- 115 1.09 122 1.35  69 1.40
   7  0.613  0.453  0.925- 101 1.09 123 1.35  67 1.40
   8  0.561  0.286  0.380- 113 1.09 124 1.34  68 1.40
   9  0.386  0.453  0.425- 114 1.09 125 1.35  70 1.40
  10  0.061  0.786  0.379- 104 1.09 126 1.34  69 1.40
  11  0.114  0.953  0.924- 105 1.09 127 1.35  71 1.40
  12  0.386  0.303  0.622- 102 1.09 128 1.35  72 1.40
  13  0.886  0.803  0.620- 108 1.09 129 1.35  66 1.40
  14  0.061  0.970  0.665- 109 1.09 130 1.34  71 1.40
  15  0.438  0.286  0.880- 106 1.09 131 1.34  72 1.40
  16  0.438  0.470  0.167- 103 1.09 132 1.34  70 1.40
  17  0.815  0.015  0.090- 141 1.23 133 1.42  33 1.48
  18  0.841  0.072  0.486- 142 1.23 133 1.42  34 1.48
  19  0.841  0.684  0.558- 143 1.23 134 1.42  35 1.48
  20  0.659  0.572  0.986- 144 1.23 135 1.42  36 1.48
  21  0.659  0.184  0.058- 145 1.23 136 1.42  37 1.48
  22  0.185  0.740  0.455- 146 1.23 137 1.42  38 1.48
  23  0.685  0.515  0.591- 147 1.23 135 1.42  39 1.48
  24  0.685  0.240  0.454- 148 1.23 136 1.42  40 1.48
  25  0.315  0.515  0.091- 149 1.23 138 1.42  41 1.48
  26  0.159  0.684  0.059- 150 1.23 137 1.42  42 1.48
  27  0.159  0.072  0.986- 151 1.23 139 1.42  43 1.48
  28  0.341  0.184  0.559- 152 1.23 140 1.42  44 1.48
  29  0.815  0.741  0.954- 153 1.23 134 1.42  45 1.48
  30  0.185  0.015  0.590- 154 1.23 139 1.42  46 1.48
  31  0.315  0.240  0.955- 155 1.23 140 1.42  47 1.48
  32  0.341  0.572  0.487- 156 1.23 138 1.42  48 1.48
  33  0.775  0.059  0.087-  49 1.39  73 1.42  17 1.48
  34  0.802  0.115  0.472-  50 1.39  73 1.42  18 1.48
  35  0.801  0.641  0.572-  51 1.39  74 1.42  19 1.48
  36  0.698  0.615  0.973-  52 1.39  75 1.42  20 1.48
  37  0.699  0.141  0.072-  53 1.39  76 1.42  21 1.48
  38  0.225  0.697  0.457-  54 1.39  77 1.42  22 1.48
  39  0.725  0.559  0.588-  55 1.39  75 1.42  23 1.48
  40  0.726  0.197  0.457-  56 1.39  76 1.42  24 1.48
  41  0.274  0.559  0.088-  57 1.39  78 1.42  25 1.48
  42  0.199  0.641  0.072-  58 1.39  77 1.42  26 1.48
  43  0.198  0.115  0.973-  59 1.39  79 1.42  27 1.48
  44  0.301  0.141  0.572-  60 1.39  80 1.42  28 1.48
  45  0.774  0.697  0.957-  61 1.39  74 1.42  29 1.48
  46  0.225  0.059  0.588-  62 1.39  79 1.42  30 1.48
  47  0.274  0.197  0.958-  63 1.39  80 1.42  31 1.48
  48  0.301  0.615  0.474-  64 1.39  78 1.42  32 1.48
  49  0.742  0.052  0.897-  88 1.09  33 1.39  53 1.40
  50  0.796  0.163  0.655-  99 1.09  34 1.39  56 1.40
  51  0.795  0.593  0.389-  93 1.09  35 1.39  55 1.40
  52  0.704  0.663  0.155-  90 1.09  36 1.39  61 1.40
  53  0.704  0.093  0.889-  98 1.09  37 1.39  49 1.40
  54  0.258  0.704  0.648-  96 1.09  38 1.39  64 1.40
  55  0.758  0.552  0.398-  86 1.09  39 1.39  51 1.40
  56  0.758  0.204  0.647-  87 1.09  40 1.39  50 1.40
  57  0.242  0.552  0.898-  95 1.09  41 1.39  58 1.40
  58  0.204  0.593  0.890-  91 1.09  42 1.39  57 1.40
  59  0.204  0.163  0.155-  92 1.09  43 1.39  63 1.40
  60  0.296  0.093  0.390-  85 1.09  44 1.39  62 1.40
  61  0.741  0.704  0.147-  89 1.09  45 1.39  52 1.40
  62  0.258  0.052  0.397- 100 1.09  46 1.39  60 1.40
  63  0.242  0.204  0.148-  94 1.09  47 1.39  59 1.40
  64  0.296  0.663  0.656-  97 1.09  48 1.39  54 1.40
  65  0.888  0.985  0.294-   1 1.40   2 1.40 133 1.42
  66  0.887  0.771  0.750-   3 1.40  13 1.40 134 1.42
  67  0.612  0.485  0.795-   4 1.40   7 1.40 135 1.42
  68  0.612  0.271  0.251-   8 1.40   5 1.40 136 1.42
  69  0.112  0.771  0.250-  10 1.40   6 1.40 137 1.42
  70  0.387  0.485  0.295-  16 1.40   9 1.40 138 1.42
  71  0.112  0.985  0.794-  14 1.40  11 1.40 139 1.42
  72  0.387  0.271  0.752-  15 1.40  12 1.40 140 1.42
  73  0.769  0.107  0.276-  33 1.42  34 1.42  76 1.43
  74  0.769  0.649  0.768-  45 1.42  35 1.42  75 1.43
  75  0.730  0.607  0.776-  36 1.42  39 1.42  74 1.43
  76  0.731  0.149  0.268-  40 1.42  37 1.42  73 1.43
  77  0.231  0.649  0.269-  38 1.42  42 1.42  78 1.43
  78  0.269  0.607  0.277-  48 1.42  41 1.42  77 1.43
  79  0.231  0.107  0.776-  46 1.42  43 1.42  80 1.43
  80  0.269  0.149  0.769-  47 1.42  44 1.42  79 1.43
  81  0.026  0.878  0.022- 127 1.96 122 1.97 117 2.03 119 2.03
  82  0.974  0.878  0.522- 118 1.96 129 1.96 130 2.03 126 2.03
  83  0.474  0.378  0.523- 125 1.96 128 1.96 124 2.03 120 2.03
  84  0.526  0.378  0.023- 121 1.97 123 1.97 131 2.03 132 2.03
  85  0.321  0.088  0.241-  60 1.09
  86  0.753  0.514  0.255-  55 1.09
  87  0.754  0.242  0.790-  56 1.09
  88  0.747  0.014  0.755-  49 1.09
  89  0.746  0.742  0.290-  61 1.09
  90  0.678  0.668  0.304-  52 1.09
  91  0.179  0.588  0.741-  58 1.09
  92  0.178  0.168  0.304-  59 1.09
  93  0.821  0.588  0.241-  51 1.09
  94  0.246  0.242  0.291-  63 1.09
  95  0.246  0.514  0.756-  57 1.09
  96  0.253  0.742  0.790-  54 1.09
  97  0.321  0.668  0.805-  64 1.09
  98  0.679  0.088  0.740-  53 1.09
  99  0.822  0.168  0.804-  50 1.09
 100  0.253  0.014  0.255-  62 1.09
 101  0.644  0.453  0.053-   7 1.09
 102  0.356  0.303  0.494-  12 1.09
 103  0.456  0.484  0.042-  16 1.09
 104  0.044  0.771  0.504-  10 1.09
 105  0.144  0.952  0.051-  11 1.09
 106  0.456  0.272  0.005-  15 1.09
 107  0.956  0.984  0.040-   1 1.09
 108  0.855  0.803  0.493-  13 1.09
 109  0.044  0.984  0.540-  14 1.09
 110  0.544  0.484  0.541-   4 1.09
 111  0.644  0.303  0.993-   5 1.09
 112  0.856  0.953  0.552-   2 1.09
 113  0.544  0.272  0.505-   8 1.09
 114  0.356  0.453  0.553-   9 1.09
 115  0.144  0.803  0.993-   6 1.09
 116  0.956  0.771  0.004-   3 1.09
 117  0.966  0.931  0.215-   1 1.34 118 1.37  81 2.03
 118  0.934  0.921  0.373-   2 1.35 117 1.37  82 1.96
 119  0.966  0.824  0.828-   3 1.34 129 1.37  81 2.03
 120  0.533  0.431  0.717-   4 1.34 123 1.37  83 2.03
 121  0.566  0.335  0.172-   5 1.35 124 1.37  84 1.97
 122  0.066  0.835  0.171-   6 1.35 126 1.37  81 1.97
 123  0.566  0.421  0.874-   7 1.35 120 1.37  84 1.97
 124  0.534  0.324  0.330-   8 1.34 121 1.37  83 2.03
 125  0.434  0.421  0.374-   9 1.35 132 1.37  83 1.96
 126  0.033  0.824  0.328-  10 1.34 122 1.37  82 2.03
 127  0.066  0.920  0.872-  11 1.35 130 1.37  81 1.96
 128  0.434  0.335  0.673-  12 1.35 131 1.37  83 1.96
 129  0.934  0.835  0.671-  13 1.35 119 1.37  82 1.96
 130  0.034  0.931  0.715-  14 1.34 127 1.37  82 2.03
 131  0.466  0.324  0.830-  15 1.34 128 1.37  84 2.03
 132  0.466  0.431  0.217-  16 1.34 125 1.37  84 2.03
 133  0.846  0.025  0.290-  18 1.42  17 1.42  65 1.42
 134  0.846  0.731  0.754-  19 1.42  29 1.42  66 1.42
 135  0.653  0.525  0.791-  20 1.42  23 1.42  67 1.42
 136  0.654  0.231  0.254-  21 1.42  24 1.42  68 1.42
 137  0.154  0.731  0.254-  26 1.42  22 1.42  69 1.42
 138  0.346  0.525  0.292-  32 1.42  25 1.42  70 1.42
 139  0.154  0.025  0.791-  27 1.42  30 1.42  71 1.42
 140  0.346  0.231  0.755-  28 1.42  31 1.42  72 1.42
 141  0.822  0.973  0.928-  17 1.23
 142  0.868  0.076  0.655-  18 1.23
 143  0.868  0.680  0.388-  19 1.23
 144  0.631  0.577  0.156-  20 1.23
 145  0.632  0.180  0.888-  21 1.23
 146  0.177  0.782  0.616-  22 1.23
 147  0.678  0.473  0.429-  23 1.23
 148  0.678  0.282  0.617-  24 1.23
 149  0.322  0.473  0.930-  25 1.23
 150  0.132  0.679  0.888-  26 1.23
 151  0.132  0.076  0.156-  27 1.23
 152  0.368  0.180  0.389-  28 1.23
 153  0.822  0.783  0.116-  29 1.23
 154  0.178  0.973  0.428-  30 1.23
 155  0.322  0.282  0.118-  31 1.23
 156  0.368  0.576  0.657-  32 1.23
 

IMPORTANT INFORMATION: All symmetrisations will be switched off!
NOSYMM: (Re-)initialisation of all symmetry stuff for point group C_1.


----------------------------------------------------------------------------------------

                                     Primitive cell                                     

  volume of cell :    3639.4030

  direct lattice vectors                    reciprocal lattice vectors
    22.754516364 -0.001125138  0.001608943     0.043947320 -0.000005510 -0.000011685
     0.001724580 25.968389634 -5.760107564     0.000001519  0.039939102  0.006450255
     0.001569065 -1.031666729  6.387940124    -0.000009700  0.036013727  0.162361287

  length of vectors
    22.754516449 26.599550791  6.470712304     0.043947322  0.040456614  0.166307475

  position of ions in fractional coordinates (direct lattice)
     0.938610316  0.969897128  0.165019853
     0.886406344  0.952966415  0.423644608
     0.938341799  0.785741825  0.878676185
     0.561209995  0.470067025  0.666395788
     0.613533382  0.302795412  0.121067499
     0.113538846  0.802591046  0.120261770
     0.613439828  0.453131632  0.924833123
     0.561420126  0.285777836  0.379683743
     0.386288897  0.452982361  0.425127145
     0.061249811  0.785605137  0.378564997
     0.113552148  0.952847802  0.923525267
     0.386314756  0.302833966  0.621728805
     0.886180609  0.802854011  0.620492754
     0.061422297  0.969835045  0.664978551
     0.438487857  0.285822895  0.880126954
     0.438465945  0.470033603  0.166723480
     0.815267445  0.015369711  0.089956326
     0.841147145  0.071925867  0.485525758
     0.840550503  0.684038866  0.558356074
     0.658612074  0.572122345  0.986346978
     0.659133769  0.183940750  0.058416271
     0.184555554  0.740253341  0.454507777
     0.684547726  0.515494799  0.590829063
     0.684778607  0.240341852  0.454380903
     0.315051942  0.515284927  0.091371521
     0.158988286  0.683740031  0.058565849
     0.158795600  0.071833724  0.985827278
     0.340790430  0.184021502  0.559140018
     0.814890385  0.740519876  0.954307926
     0.184735526  0.015365277  0.590127667
     0.315147350  0.240335887  0.955292682
     0.340873868  0.571925532  0.486935599
     0.774534366  0.058637600  0.087236772
     0.801511812  0.114881131  0.472417271
     0.800972944  0.641074956  0.571752717
     0.698256165  0.615056655  0.973054630
     0.698760828  0.140972276  0.071543095
     0.225363595  0.697059119  0.457426647
     0.725261881  0.558757499  0.587899652
     0.725661669  0.197156267  0.456823118
     0.274285102  0.558504141  0.088455209
     0.198549688  0.640783620  0.072136337
     0.198433900  0.114811068  0.972910674
     0.301182836  0.141034090  0.572157219
     0.774054237  0.697326976  0.957039817
     0.225446231  0.058661463  0.587565764
     0.274273575  0.197130702  0.957629380
     0.301184484  0.614822459  0.473641170
     0.741951025  0.051771951  0.897106560
     0.796011102  0.163040723  0.654826089
     0.795492180  0.592897983  0.389435597
     0.703728688  0.663239790  0.155344895
     0.704257105  0.092810237  0.889146315
     0.257897660  0.703985024  0.647738752
     0.757827549  0.551864038  0.397616730
     0.758253208  0.204041721  0.646964257
     0.241748099  0.551580940  0.898161296
     0.204073111  0.592594611  0.889896343
     0.203908479  0.162941810  0.155461442
     0.295700576  0.092912495  0.389581382
     0.741462180  0.704238384  0.147284773
     0.258023918  0.051849891  0.397397864
     0.241662109  0.203964358  0.147762046
     0.295631818  0.663000304  0.655923618
     0.887604699  0.984873854  0.293684099
     0.887285425  0.770923764  0.750353969
     0.612220085  0.485038647  0.794864995
     0.612405580  0.270846653  0.250855389
     0.112322429  0.770696315  0.250267661
     0.387441881  0.484920675  0.295297073
     0.112393190  0.984790708  0.793708208
     0.387472469  0.270909511  0.751612164
     0.769308461  0.107093136  0.275888383
     0.768799609  0.648868950  0.768431129
     0.730470095  0.607233427  0.776447893
     0.730950614  0.148731171  0.268081918
     0.230675144  0.648596395  0.268859681
     0.269017233  0.606981976  0.276987567
     0.230652329  0.107079592  0.776388287
     0.268996671  0.148740354  0.768735554
     0.026100456  0.877713380  0.021687911
     0.973800602  0.877797304  0.521795995
     0.473822097  0.377861870  0.523090510
     0.526043919  0.377935251  0.023171931
     0.321202738  0.088067887  0.240839346
     0.753146774  0.514068809  0.255129647
     0.753511596  0.241805072  0.789577203
     0.746640121  0.013991000  0.754525128
     0.746189289  0.742015646  0.289827764
     0.678206350  0.668172337  0.304137709
     0.178618559  0.587668834  0.741025677
     0.178371662  0.167814493  0.304163020
     0.820988436  0.587990025  0.240615877
     0.246395416  0.241696386  0.290522592
     0.246482131  0.513782437  0.755702165
     0.253119805  0.741763901  0.790257333
     0.321118707  0.667954084  0.804760260
     0.678749580  0.087906616  0.740409933
     0.821531851  0.167951191  0.803537304
     0.253339217  0.014097756  0.254699468
     0.644215771  0.452716948  0.052561584
     0.355556784  0.303276241  0.494003895
     0.455681895  0.484293396  0.041735489
     0.043957943  0.771380587  0.503547607
     0.144276482  0.952414785  0.051375495
     0.455715994  0.271589268  0.005145389
     0.955859017  0.984103559  0.039922840
     0.855406805  0.803366670  0.492920318
     0.044210813  0.984071255  0.539945917
     0.543946161  0.484284035  0.541383130
     0.644265649  0.303248592  0.993212548
     0.855650531  0.952555319  0.551506451
     0.544220825  0.271538377  0.504758348
     0.355531287  0.452515816  0.552898063
     0.144346773  0.803026798  0.992604036
     0.955542335  0.771468900  0.003621361
     0.966363440  0.931258267  0.215179062
     0.934012860  0.920573454  0.372539207
     0.966214161  0.824312614  0.828399873
     0.533483111  0.431422719  0.716611358
     0.565912293  0.335167867  0.172387709
     0.065876388  0.834917263  0.170978638
     0.565845963  0.420734636  0.873876940
     0.533616360  0.324425562  0.329740372
     0.433943131  0.420648350  0.374014182
     0.033474998  0.824198768  0.328155614
     0.065954599  0.920455196  0.872287106
     0.433950106  0.335175785  0.672697917
     0.933888200  0.835110941  0.671306648
     0.033650432  0.931178918  0.714978195
     0.466283231  0.324441782  0.829924019
     0.466274125  0.431407694  0.216783204
     0.846401946  0.024896233  0.290470774
     0.845980537  0.730986918  0.753626312
     0.653406466  0.525054141  0.791433568
     0.653678938  0.230856167  0.253828080
     0.153546791  0.730718732  0.253725260
     0.346169391  0.524877754  0.291973318
     0.153589013  0.024832534  0.790652167
     0.346229293  0.230905134  0.754666130
     0.822209291  0.973241777  0.928108712
     0.868329843  0.076281457  0.655322037
     0.867555440  0.679758170  0.388212922
     0.631384197  0.576525557  0.156164179
     0.632108519  0.179678986  0.888397028
     0.177462722  0.782340904  0.616425267
     0.677637016  0.473344922  0.429073351
     0.677687026  0.282377063  0.616544381
     0.322049124  0.473154051  0.929576905
     0.132014993  0.679423690  0.888370967
     0.131574614  0.076144371  0.155559131
     0.367807492  0.179803550  0.389092835
     0.821952808  0.782591028  0.116288263
     0.177825173  0.973263666  0.428161034
     0.322239624  0.282341933  0.117569098
     0.368081816  0.576341250  0.656758041

  ion indices of the primitive-cell ions
   primitive index   ion index
                 1           1
                 2           2
                 3           3
                 4           4
                 5           5
                 6           6
                 7           7
                 8           8
                 9           9
                10          10
                11          11
                12          12
                13          13
                14          14
                15          15
                16          16
                17          17
                18          18
                19          19
                20          20
                21          21
                22          22
                23          23
                24          24
                25          25
                26          26
                27          27
                28          28
                29          29
                30          30
                31          31
                32          32
                33          33
                34          34
                35          35
                36          36
                37          37
                38          38
                39          39
                40          40
                41          41
                42          42
                43          43
                44          44
                45          45
                46          46
                47          47
                48          48
                49          49
                50          50
                51          51
                52          52
                53          53
                54          54
                55          55
                56          56
                57          57
                58          58
                59          59
                60          60
                61          61
                62          62
                63          63
                64          64
                65          65
                66          66
                67          67
                68          68
                69          69
                70          70
                71          71
                72          72
                73          73
                74          74
                75          75
                76          76
                77          77
                78          78
                79          79
                80          80
                81          81
                82          82
                83          83
                84          84
                85          85
                86          86
                87          87
                88          88
                89          89
                90          90
                91          91
                92          92
                93          93
                94          94
                95          95
                96          96
                97          97
                98          98
                99          99
               100         100
               101         101
               102         102
               103         103
               104         104
               105         105
               106         106
               107         107
               108         108
               109         109
               110         110
               111         111
               112         112
               113         113
               114         114
               115         115
               116         116
               117         117
               118         118
               119         119
               120         120
               121         121
               122         122
               123         123
               124         124
               125         125
               126         126
               127         127
               128         128
               129         129
               130         130
               131         131
               132         132
               133         133
               134         134
               135         135
               136         136
               137         137
               138         138
               139         139
               140         140
               141         141
               142         142
               143         143
               144         144
               145         145
               146         146
               147         147
               148         148
               149         149
               150         150
               151         151
               152         152
               153         153
               154         154
               155         155
               156         156

----------------------------------------------------------------------------------------

 
 

Automatic generation of k-mesh.
 generate k-points for:    1    1    4
Space group operators:
 irot       det(A)        alpha          n_x          n_y          n_z        tau_x        tau_y        tau_z
    1     1.000000     0.000000     1.000000     0.000000     0.000000     0.000000     0.000000     0.000000
 
 Subroutine IBZKPT returns following result:
 ===========================================
 
 Found      3 irreducible k-points:
 
 Following reciprocal coordinates:
            Coordinates               Weight
  0.000000  0.000000  0.000000      1.000000
 -0.000000  0.000000  0.250000      2.000000
 -0.000000  0.000000  0.500000      1.000000
 
 Following cartesian coordinates:
            Coordinates               Weight
  0.000000  0.000000  0.000000      1.000000
 -0.000002  0.009003  0.040590      2.000000
 -0.000005  0.018007  0.081181      1.000000
 


--------------------------------------------------------------------------------------------------------




 Dimension of arrays:
   k-points           NKPTS =      3   k-points in BZ     NKDIM =      3   number of bands    NBANDS=    400
   number of dos      NEDOS =    301   number of ions     NIONS =    156
   non local maximal  LDIM  =      6   non local SUM 2l+1 LMDIM =     18
   total plane-waves  NPLWV = 896000
   max r-space proj   IRMAX =   2351   max aug-charges    IRDMAX=   7537
   dimension x,y,z NGX =   140 NGY =  160 NGZ =   40
   dimension x,y,z NGXF=   280 NGYF=  320 NGZF=   80
   support grid    NGXF=   280 NGYF=  320 NGZF=   80
   ions per type =              80   4  32  24  16
   NGX,Y,Z   is equivalent  to a cutoff of  10.23, 10.00, 10.28 a.u.
   NGXF,Y,Z  is equivalent  to a cutoff of  20.46, 20.00, 20.55 a.u.

 SYSTEM =  flex_MOF                                
 POSCAR =  Zn_H                                    

 Startparameter for this run:
   NWRITE =      2    write-flag & timer
   PREC   = normal    normal or accurate (medium, high low for compatibility)
   ISTART =      0    job   : 0-new  1-cont  2-samecut
   ICHARG =      2    charge: 1-file 2-atom 10-const
   ISPIN  =      1    spin polarized calculation?
   LNONCOLLINEAR =      F non collinear calculations
   LSORBIT =      F    spin-orbit coupling
   INIWAV =      1    electr: 0-lowe 1-rand  2-diag
   LASPH  =      F    aspherical Exc in radial PAW
   METAGGA=      F    non-selfconsistent MetaGGA calc.

 Electronic Relaxation 1
   ENCUT  =  600.0 eV  44.10 Ry    6.64 a.u.  45.45 53.13 12.92*2*pi/ulx,y,z
   ENINI  =  600.0     initial cutoff
   ENAUG  =  644.9 eV  augmentation charge cutoff
   NELM   =     80;   NELMIN=  4; NELMDL=-12     # of ELM steps 
   EDIFF  = 0.1E-05   stopping-criterion for ELM
   LREAL  =      T    real-space projection
   NLSPLINE    = F    spline interpolate recip. space projectors
   LCOMPAT=      F    compatible to vasp.4.4
   GGA_COMPAT  = T    GGA compatible to vasp.4.4-vasp.4.6
   LMAXPAW     = -100 max onsite density
   LMAXMIX     =    2 max onsite mixed and CHGCAR
   VOSKOWN=      0    Vosko Wilk Nusair interpolation
   ROPT   =   -0.00050  -0.00050  -0.00050  -0.00050
   ROPT   =   -0.00050
 Ionic relaxation
   EDIFFG = -.1E-01   stopping-criterion for IOM
   NSW    =   1000    number of steps for IOM
   NBLOCK =      1;   KBLOCK =   1000    inner block; outer block 
   IBRION =      1    ionic relax: 0-MD 1-quasi-New 2-CG
   NFREE  =      0    steps in history (QN), initial steepest desc. (CG)
   ISIF   =      4    stress and relaxation
   IWAVPR =     11    prediction:  0-non 1-charg 2-wave 3-comb
   ISYM   =      0    0-nonsym 1-usesym 2-fastsym
   LCORR  =      T    Harris-Foulkes like correction to forces

   POTIM  = 0.5000    time-step for ionic-motion
   TEIN   =    0.0    initial temperature
   TEBEG  =    0.0;   TEEND  =   0.0 temperature during run
   SMASS  =  -3.00    Nose mass-parameter (am)
   estimated Nose-frequenzy (Omega)   =  0.10E-29 period in steps = 0.13E+47 mass=  -0.118E-25a.u.
   SCALEE = 1.0000    scale energy and forces
   NPACO  =    256;   APACO  = 16.0  distance and # of slots for P.C.
   PSTRESS=    0.0 pullay stress

  Mass of Ions in am
   POMASS =  12.01 65.39  1.00 14.00 16.00
  Ionic Valenz
   ZVAL   =   4.00 12.00  1.00  5.00  6.00
  Atomic Wigner-Seitz radii
   RWIGS  =  -1.00 -1.00 -1.00 -1.00 -1.00
  virtual crystal weights 
   VCA    =   1.00  1.00  1.00  1.00  1.00
   NELECT =     616.0000    total number of electrons
   NUPDOWN=      -1.0000    fix difference up-down

 DOS related values:
   EMIN   =  10.00;   EMAX   =-10.00  energy-range for DOS
   EFERMI =   0.00
   ISMEAR =     0;   SIGMA  =   0.05  broadening in eV -4-tet -1-fermi 0-gaus

 Electronic relaxation 2 (details)
   IALGO  =     48    algorithm
   LDIAG  =      T    sub-space diagonalisation (order eigenvalues)
   LSUBROT=      F    optimize rotation matrix (better conditioning)
   TURBO    =      0    0=normal 1=particle mesh
   IRESTART =      0    0=no restart 2=restart with 2 vectors
   NREBOOT  =      0    no. of reboots
   NMIN     =      0    reboot dimension
   EREF     =   0.00    reference energy to select bands
   IMIX   =      4    mixing-type and parameters
     AMIX     =   0.40;   BMIX     =  1.00
     AMIX_MAG =   1.60;   BMIX_MAG =  1.00
     AMIN     =   0.10
     WC   =   100.;   INIMIX=   1;  MIXPRE=   1;  MAXMIX= -45

 Intra band minimization:
   WEIMIN = 0.0010     energy-eigenvalue tresh-hold
   EBREAK =  0.63E-09  absolut break condition
   DEPER  =   0.30     relativ break condition  

   TIME   =   0.40     timestep for ELM

  volume/ion in A,a.u.               =      23.33       157.44
  Fermi-wavevector in a.u.,A,eV,Ry     =   0.905576  1.711291 11.157707  0.820068
  Thomas-Fermi vector in A             =   2.029161
 
 Write flags
   LWAVE        =      T    write WAVECAR
   LDOWNSAMPLE  =      F    k-point downsampling of WAVECAR
   LCHARG       =      T    write CHGCAR
   LVTOT        =      F    write LOCPOT, total local potential
   LVHAR        =      F    write LOCPOT, Hartree potential only
   LELF         =      F    write electronic localiz. function (ELF)
   LORBIT       =      0    0 simple, 1 ext, 2 COOP (PROOUT), +10 PAW based schemes


 Dipole corrections
   LMONO  =      F    monopole corrections only (constant potential shift)
   LDIPOL =      F    correct potential (dipole corrections)
   IDIPOL =      0    1-x, 2-y, 3-z, 4-all directions 
   EPSILON=  1.0000000 bulk dielectric constant

 Exchange correlation treatment:
   GGA     =    PE    GGA type
   LEXCH   =     8    internal setting for exchange type
   VOSKOWN=      0    Vosko Wilk Nusair interpolation
   LHFCALC =     F    Hartree Fock is set to
   LHFONE  =     F    Hartree Fock one center treatment
   AEXX    =    0.0000 exact exchange contribution

 Linear response parameters
   LEPSILON=     F    determine dielectric tensor
   LRPA    =     F    only Hartree local field effects (RPA)
   LNABLA  =     F    use nabla operator in PAW spheres
   LVEL    =     F    velocity operator in full k-point grid
   LINTERFAST=   F  fast interpolation
   KINTER  =     0    interpolate to denser k-point grid
   CSHIFT  =0.1000    complex shift for real part using Kramers Kronig
   OMEGAMAX=  -1.0    maximum frequency
   DEG_THRESHOLD= 0.2000000E-02 threshold for treating states as degnerate
   RTIME   =   -0.100 relaxation time in fs
  (WPLASMAI=    0.000 imaginary part of plasma frequency in eV, 0.658/RTIME)
   DFIELD  = 0.0000000 0.0000000 0.0000000 field for delta impulse in time
 
 Orbital magnetization related:
   ORBITALMAG=     F  switch on orbital magnetization
   LCHIMAG   =     F  perturbation theory with respect to B field
   DQ        =  0.001000  dq finite difference perturbation B field
   LLRAUG    =     F  two centre corrections for induced B field



--------------------------------------------------------------------------------------------------------


 quasi-Newton-method for relaxation of ions
 charge density and potential will be updated during run
 non-spin polarized calculation
 RMM-DIIS sequential band-by-band
 perform sub-space diagonalisation
    before iterative eigenvector-optimisation
 modified Broyden-mixing scheme, WC =      100.0
 initial mixing is a Kerker type mixing with AMIX =  0.4000 and BMIX =      1.0000
 Hartree-type preconditioning will be used
 using additional bands           92
 real space projection scheme for non local part
 use partial core corrections
 calculate Harris-corrections to forces 
   (improved forces if not selfconsistent)
 use gradient corrections 
 use of overlap-Matrix (Vanderbilt PP)
 Gauss-broadening in eV      SIGMA  =   0.05


--------------------------------------------------------------------------------------------------------


  energy-cutoff  :      600.00
  volume of cell :     3639.40
      direct lattice vectors                 reciprocal lattice vectors
    22.754516364 -0.001125138  0.001608943     0.043947320 -0.000005510 -0.000011685
     0.001724580 25.968389634 -5.760107564     0.000001519  0.039939102  0.006450255
     0.001569065 -1.031666729  6.387940124    -0.000009700  0.036013727  0.162361287

  length of vectors
    22.754516449 26.599550791  6.470712304     0.043947322  0.040456614  0.166307475


 
 k-points in units of 2pi/SCALE and weight: read from INCAR                         
   0.00000000  0.00000000  0.00000000       0.250
  -0.00000242  0.00900343  0.04059032       0.500
  -0.00000485  0.01800686  0.08118064       0.250
 
 k-points in reciprocal lattice and weights: read from INCAR                         
   0.00000000  0.00000000  0.00000000       0.250
  -0.00000000  0.00000000  0.25000000       0.500
  -0.00000000  0.00000000  0.50000000       0.250
 
 position of ions in fractional coordinates (direct lattice) 
   0.93861032  0.96989713  0.16501985
   0.88640634  0.95296642  0.42364461
   0.93834180  0.78574183  0.87867618
   0.56121000  0.47006702  0.66639579
   0.61353338  0.30279541  0.12106750
   0.11353885  0.80259105  0.12026177
   0.61343983  0.45313163  0.92483312
   0.56142013  0.28577784  0.37968374
   0.38628890  0.45298236  0.42512715
   0.06124981  0.78560514  0.37856500
   0.11355215  0.95284780  0.92352527
   0.38631476  0.30283397  0.62172881
   0.88618061  0.80285401  0.62049275
   0.06142230  0.96983505  0.66497855
   0.43848786  0.28582290  0.88012695
   0.43846595  0.47003360  0.16672348
   0.81526744  0.01536971  0.08995633
   0.84114714  0.07192587  0.48552576
   0.84055050  0.68403887  0.55835607
   0.65861207  0.57212234  0.98634698
   0.65913377  0.18394075  0.05841627
   0.18455555  0.74025334  0.45450778
   0.68454773  0.51549480  0.59082906
   0.68477861  0.24034185  0.45438090
   0.31505194  0.51528493  0.09137152
   0.15898829  0.68374003  0.05856585
   0.15879560  0.07183372  0.98582728
   0.34079043  0.18402150  0.55914002
   0.81489038  0.74051988  0.95430793
   0.18473553  0.01536528  0.59012767
   0.31514735  0.24033589  0.95529268
   0.34087387  0.57192553  0.48693560
   0.77453437  0.05863760  0.08723677
   0.80151181  0.11488113  0.47241727
   0.80097294  0.64107496  0.57175272
   0.69825616  0.61505665  0.97305463
   0.69876083  0.14097228  0.07154310
   0.22536359  0.69705912  0.45742665
   0.72526188  0.55875750  0.58789965
   0.72566167  0.19715627  0.45682312
   0.27428510  0.55850414  0.08845521
   0.19854969  0.64078362  0.07213634
   0.19843390  0.11481107  0.97291067
   0.30118284  0.14103409  0.57215722
   0.77405424  0.69732698  0.95703982
   0.22544623  0.05866146  0.58756576
   0.27427357  0.19713070  0.95762938
   0.30118448  0.61482246  0.47364117
   0.74195103  0.05177195  0.89710656
   0.79601110  0.16304072  0.65482609
   0.79549218  0.59289798  0.38943560
   0.70372869  0.66323979  0.15534490
   0.70425711  0.09281024  0.88914632
   0.25789766  0.70398502  0.64773875
   0.75782755  0.55186404  0.39761673
   0.75825321  0.20404172  0.64696426
   0.24174810  0.55158094  0.89816130
   0.20407311  0.59259461  0.88989634
   0.20390848  0.16294181  0.15546144
   0.29570058  0.09291250  0.38958138
   0.74146218  0.70423838  0.14728477
   0.25802392  0.05184989  0.39739786
   0.24166211  0.20396436  0.14776205
   0.29563182  0.66300030  0.65592362
   0.88760470  0.98487385  0.29368410
   0.88728542  0.77092376  0.75035397
   0.61222009  0.48503865  0.79486500
   0.61240558  0.27084665  0.25085539
   0.11232243  0.77069631  0.25026766
   0.38744188  0.48492067  0.29529707
   0.11239319  0.98479071  0.79370821
   0.38747247  0.27090951  0.75161216
   0.76930846  0.10709314  0.27588838
   0.76879961  0.64886895  0.76843113
   0.73047010  0.60723343  0.77644789
   0.73095061  0.14873117  0.26808192
   0.23067514  0.64859639  0.26885968
   0.26901723  0.60698198  0.27698757
   0.23065233  0.10707959  0.77638829
   0.26899667  0.14874035  0.76873555
   0.02610046  0.87771338  0.02168791
   0.97380060  0.87779730  0.52179599
   0.47382210  0.37786187  0.52309051
   0.52604392  0.37793525  0.02317193
   0.32120274  0.08806789  0.24083935
   0.75314677  0.51406881  0.25512965
   0.75351160  0.24180507  0.78957720
   0.74664012  0.01399100  0.75452513
   0.74618929  0.74201565  0.28982776
   0.67820635  0.66817234  0.30413771
   0.17861856  0.58766883  0.74102568
   0.17837166  0.16781449  0.30416302
   0.82098844  0.58799002  0.24061588
   0.24639542  0.24169639  0.29052259
   0.24648213  0.51378244  0.75570217
   0.25311980  0.74176390  0.79025733
   0.32111871  0.66795408  0.80476026
   0.67874958  0.08790662  0.74040993
   0.82153185  0.16795119  0.80353730
   0.25333922  0.01409776  0.25469947
   0.64421577  0.45271695  0.05256158
   0.35555678  0.30327624  0.49400389
   0.45568190  0.48429340  0.04173549
   0.04395794  0.77138059  0.50354761
   0.14427648  0.95241478  0.05137550
   0.45571599  0.27158927  0.00514539
   0.95585902  0.98410356  0.03992284
   0.85540681  0.80336667  0.49292032
   0.04421081  0.98407126  0.53994592
   0.54394616  0.48428404  0.54138313
   0.64426565  0.30324859  0.99321255
   0.85565053  0.95255532  0.55150645
   0.54422083  0.27153838  0.50475835
   0.35553129  0.45251582  0.55289806
   0.14434677  0.80302680  0.99260404
   0.95554233  0.77146890  0.00362136
   0.96636344  0.93125827  0.21517906
   0.93401286  0.92057345  0.37253921
   0.96621416  0.82431261  0.82839987
   0.53348311  0.43142272  0.71661136
   0.56591229  0.33516787  0.17238771
   0.06587639  0.83491726  0.17097864
   0.56584596  0.42073464  0.87387694
   0.53361636  0.32442556  0.32974037
   0.43394313  0.42064835  0.37401418
   0.03347500  0.82419877  0.32815561
   0.06595460  0.92045520  0.87228711
   0.43395011  0.33517578  0.67269792
   0.93388820  0.83511094  0.67130665
   0.03365043  0.93117892  0.71497819
   0.46628323  0.32444178  0.82992402
   0.46627413  0.43140769  0.21678320
   0.84640195  0.02489623  0.29047077
   0.84598054  0.73098692  0.75362631
   0.65340647  0.52505414  0.79143357
   0.65367894  0.23085617  0.25382808
   0.15354679  0.73071873  0.25372526
   0.34616939  0.52487775  0.29197332
   0.15358901  0.02483253  0.79065217
   0.34622929  0.23090513  0.75466613
   0.82220929  0.97324178  0.92810871
   0.86832984  0.07628146  0.65532204
   0.86755544  0.67975817  0.38821292
   0.63138420  0.57652556  0.15616418
   0.63210852  0.17967899  0.88839703
   0.17746272  0.78234090  0.61642527
   0.67763702  0.47334492  0.42907335
   0.67768703  0.28237706  0.61654438
   0.32204912  0.47315405  0.92957691
   0.13201499  0.67942369  0.88837097
   0.13157461  0.07614437  0.15555913
   0.36780749  0.17980355  0.38909283
   0.82195281  0.78259103  0.11628826
   0.17782517  0.97326367  0.42816103
   0.32223962  0.28234193  0.11756910
   0.36808182  0.57634125  0.65675804
 
 position of ions in cartesian coordinates  (Angst):
  21.35955538 25.01536497 -4.53106467
  20.17205585 24.30894581 -2.78154649
  21.35424760 19.49689311  1.08848317
  12.77191830 11.51875385  1.55016272
  13.96136754  7.73751763 -0.96977507
   2.58509436 20.71779919 -3.85460309
  13.96075920 10.81228900  3.29867867
  12.77593203  7.02885144  0.78018923
   8.79126528 11.32419829  0.10708114
   1.39565867 20.01027847 -2.10682101
   2.58691655 23.79102493  0.41110097
   8.79190323  7.22225886  2.22783172
  20.16696934 20.20768697 -0.65942908
   1.40035062 24.49894898 -1.33841219
   9.97945301  6.51386925  3.97653316
   9.97815274 12.03351934 -1.64171904
  18.55118406  0.30540440  0.48741616
  19.14078233  1.36595176  2.68856210
  19.12837595 17.18640468 -0.37203988
  14.98893352 13.83877357  3.00629886
  14.99867902  4.71563732 -0.68529836
   4.20146216 18.75407897 -1.36027346
  15.57836849 12.77626090  0.80597659
  15.58293346  5.77175073  1.51926485
   7.16988658 13.28650032 -2.38391390
   3.61897261 17.69502821 -3.56404518
   3.61498780  0.84818225  5.88389115
   7.75571610  4.20151248  2.51231762
  18.54521105 18.24466407  1.83189886
   4.20451999 -0.21001144  3.68149178
   7.17293893  5.25523770  4.71849895
   7.75817038 14.34924628 -0.18328869
  17.62439290  1.43185330  0.22075057
  18.23895301  2.49499898  2.35733515
  18.22775465 16.05692478 -0.03904986
  15.89106883 14.96737714  2.67414568
  15.90032006  3.58622815 -0.35387820
   5.12995947 17.62933738 -1.09275887
  16.50486942 13.90269992  0.53813139
  16.51313712  4.64772508  1.78368497
   6.24232683 14.41188824 -2.65155604
   4.51912040 16.56547467 -3.22986052
   4.51699199  1.97751572  5.55389029
   6.85441075  3.07181377  2.84301911
  17.61593406 17.12024156  2.09808006
   5.13094304  0.91691801  3.41580131
   6.24280509  4.13090390  4.98222639
   6.85511075 15.47697045 -0.51536747
  16.88423364  0.41808442  5.43364474
  18.11415630  3.55744710  3.24513848
  18.10267338 14.99394304 -0.92618498
  16.01439351 17.06221334 -2.82686638
  16.02658501  1.49203733  5.14634959
   5.87056694 17.61281671  0.08310184
  17.24557498 13.91995976 -0.63762506
  17.25505204  4.63033028  2.95868666
   5.50322158 13.39679363  2.56062400
   4.64600323 14.47042170  2.27152419
   4.64036375  4.07072260  0.05484411
   6.72929512  2.01053702  1.95391234
  16.87305892 18.13515369 -3.11444956
   5.87192243  0.93618571  2.24030796
   5.49948801  5.14391282 -0.23057272
   6.72913163 16.54002302  0.37152339
  20.19917496 25.27160518 -3.79551479
  20.19225760 19.24453514  0.35404001
  13.93285564 11.77494796  2.28466025
  13.93585351  6.77396320  0.04332868
   2.55756435 19.75542299 -2.84041812
   8.81735224 12.28752494 -0.90623186
   2.56039641 24.75446000 -0.60215907
   8.81839516  6.25923450  3.24140900
  17.50585954  2.49554583  1.14672826
  17.49598803 16.05645189  1.17237405
  16.62375926 14.96701688  1.46334808
  16.63310483  3.58491538  0.85695976
   5.25044174 16.56537076 -2.01815431
   6.12283843 15.47628292 -1.72646865
   5.24978507  1.97945107  4.34310303
   6.12235187  3.06916592  4.05430905
   0.59545097 22.77039898 -4.91714041
  22.16069430 22.25556717 -1.72143853
  10.78306507  9.27227609  1.16570819
  11.97056310  9.78987228 -2.02808041
   7.30934274  2.03815386  1.03170362
  17.13877747 13.08548296 -1.33012695
  17.14744785  5.46385999  3.65216103
  16.99064288 -0.41593480  4.74047298
  16.98091080 18.96910619 -2.42148696
  15.43388701 17.03682777 -1.90483986
   4.06655512 14.49612075  1.34887935
   4.05952756  4.04387659  0.97663262
  18.68258639 15.01999495 -1.84852505
   5.60748119  5.97646621  0.46404017
   5.61065349 12.56219241  1.86833466
   5.76213794 18.44684700  0.77588392
   7.30931553 16.51508622  1.29378965
  15.44593179  1.51817328  4.22443482
  18.69511038  3.53151493  4.16685306
   5.76503530  0.10304601  1.54620797
  14.65968152 11.70137924 -2.27090156
   8.09182081  7.36554815  1.40933560
  10.36972184 12.53274978 -2.52224508
   1.00236215 19.51196887 -1.22653247
   3.28466470 24.67951350 -5.15759589
  10.37007350  7.04691486 -1.53078173
  21.75186945 25.51332213 -5.41197972
  19.46652704 20.35264676 -1.47735666
   1.00854000 24.99765181 -2.21914296
  12.37891647 12.01693754  0.66967006
  14.66203465  6.84948837  4.59887437
  19.47242212 24.16639408 -1.96245421
  12.38474196  6.53005965  1.66115147
   8.09159042 11.18030048  0.92591197
   3.28748336 19.82911380  1.71540666
  21.74423984 20.02899383 -4.41907339
  21.99107637 23.96019716 -3.98804200
  21.25518304 23.52042295 -2.92134120
  21.98845735 20.55035143  0.54519405
  12.14101861 10.46344893  2.09348752
  12.87790904  8.52528637 -0.82849008
   1.50069351 21.50498971 -3.71690595
  12.87764798 10.02361454  3.15970722
  12.14325907  8.08402685  0.23849417
   9.87547837 10.53721403 -0.03310136
   0.76364368 21.06452986 -2.65118128
   1.50372107 23.00275539  0.27030298
   9.87595833  8.00948706  2.36720365
  21.25266786 20.99287081 -0.52055960
   0.76842705 23.44355990 -0.79639869
  10.61191113  7.56850097  3.43343560
  10.61092635 10.97879044 -1.09940638
  19.25996564  0.34589372  1.71346674
  19.25232111 18.20411007  0.60491761
  14.87009544 12.81757965  2.03231321
  14.87494449  5.73236142  0.29273396
   3.49554126 18.71365608 -2.58798968
   7.87828040 13.32862138 -1.15768728
   3.49612712 -0.17100142  4.90784775
   7.87986244  5.21728100  3.49128071
  18.71210946 24.31509770  0.32404845
  19.75958543  1.30385566  3.74816563
  19.74258589 17.25074254 -1.43420343
  14.36808134 14.80962053 -2.32226594
  14.38502745  3.74873304  4.64107377
   4.04039483 19.67998832 -0.56839453
  15.42079213 11.84858224  0.01546749
  15.42189490  6.69604678  2.31301669
   7.33034661 11.32767284  3.21318154
   3.00650295 16.72688781  1.76151941
   2.99429212  1.81671346  0.55531434
   8.37020218  4.26738068  1.45040572
  18.70467072 20.20173319 -3.76364356
   4.04867610 24.83217052 -2.87075024
   7.33307818  7.21031064 -0.87477708
   8.37754816 14.28868458  0.87613567
 


--------------------------------------------------------------------------------------------------------


 k-point  1 :   0.0000 0.0000 0.0000  plane waves:  121353
 k-point  2 :  -0.0000 0.0000 0.2500  plane waves:  121466
 k-point  3 :  -0.0000 0.0000 0.5000  plane waves:  121576

 maximum and minimum number of plane-waves per node :     30462    30269

 maximum number of plane-waves:    121576
 maximum index in each direction: 
   IXMAX=   45   IYMAX=   53   IZMAX=   12
   IXMIN=  -45   IYMIN=  -53   IZMIN=  -13


 real space projection operators:
  total allocation   :      12505.90 KBytes
  max/ min on nodes  :       3137.08       3115.94


 parallel 3D FFT for wavefunctions:
    minimum data exchange during FFTs selected (reduces bandwidth)
 parallel 3D FFT for charge:
    minimum data exchange during FFTs selected (reduces bandwidth)


 total amount of memory used by VASP MPI-rank0   104524. kBytes
=======================================================================

   base      :      30000. kBytes
   nonlr-proj:       6376. kBytes
   fftplans  :      11204. kBytes
   grid      :      19494. kBytes
   one-center:        606. kBytes
   wavefun   :      36844. kBytes
 
     INWAV:  cpu time    0.0001: real time    0.0005
 Broyden mixing: mesh for mixing (old mesh)
   NGX = 91   NGY =107   NGZ = 25
  (NGX  =280   NGY  =320   NGZ  = 80)
  gives a total of 243425 points

 initial charge density was supplied:
 charge density of overlapping atoms calculated
 number of electron     616.0000000 magnetization 
 keeping initial charge density in first step


--------------------------------------------------------------------------------------------------------


 Maximum index for non-local projection operator          577
 Maximum index for augmentation-charges          385 (set IRDMAX)


--------------------------------------------------------------------------------------------------------


 First call to EWALD:  gamma=   0.115
 Maximum number of real-space cells 2x 2x 6
 Maximum number of reciprocal cells 4x 4x 1

    FEWALD:  cpu time    0.0160: real time    0.0165


--------------------------------------- Iteration      1(   1)  ---------------------------------------


    POTLOK:  cpu time    0.1627: real time    0.1935
    SETDIJ:  cpu time    0.0308: real time    0.0312
    EDDIAG:  cpu time    2.6411: real time    2.6868
  RMM-DIIS:  cpu time    3.4364: real time    3.4410
    ORTHCH:  cpu time    0.5686: real time    0.5698
       DOS:  cpu time    0.0035: real time    0.0039
    --------------------------------------------
      LOOP:  cpu time    6.8432: real time    6.9263

 eigenvalue-minimisations  :  1200
 total energy-change (2. order) : 0.8164499E+04  (-0.2238594E+05)
 number of electron     616.0000000 magnetization 
 augmentation part      616.0000000 magnetization 

 Free energy of the ion-electron system (eV)
  ---------------------------------------------------
  alpha Z        PSCENC =       530.83008810
  Ewald energy   TEWEN  =     41510.41400323
  -Hartree energ DENC   =    -68672.69545690
  -exchange      EXHF   =         0.00000000
  -V(xc)+E(xc)   XCENC  =      2272.02768079
  PAW double counting   =     25034.14638475   -25847.60581054
  entropy T*S    EENTRO =        -0.07812835
  eigenvalues    EBANDS =       903.78056390
  atomic energy  EATOM  =     32433.67991533
  Solvation  Ediel_sol  =         0.00000000
  ---------------------------------------------------
  free energy    TOTEN  =      8164.49924031 eV

  energy without entropy =     8164.57736866  energy(sigma->0) =     8164.53830448


--------------------------------------------------------------------------------------------------------




--------------------------------------- Iteration      1(   2)  ---------------------------------------


    EDDIAG:  cpu time    2.5471: real time    2.5501
  RMM-DIIS:  cpu time    3.3782: real time    3.3813
    ORTHCH:  cpu time    0.5671: real time    0.5682
       DOS:  cpu time    0.0021: real time    0.0021
    --------------------------------------------
      LOOP:  cpu time    6.4945: real time    6.5018

 eigenvalue-minimisations  :  1200
 total energy-change (2. order) :-0.5076358E+04  (-0.6749864E+04)
 number of electron     616.0000000 magnetization 
 augmentation part      616.0000000 magnetization 

 Free energy of the ion-electron system (eV)
  ---------------------------------------------------
  alpha Z        PSCENC =       530.83008810
  Ewald energy   TEWEN  =     41510.41400323
  -Hartree energ DENC   =    -68672.69545690
  -exchange      EXHF   =         0.00000000
  -V(xc)+E(xc)   XCENC  =      2272.02768079
  PAW double counting   =     25034.14638475   -25847.60581054
  entropy T*S    EENTRO =        -0.04668727
  eigenvalues    EBANDS =     -4172.60900203
  atomic energy  EATOM  =     32433.67991533
  Solvation  Ediel_sol  =         0.00000000
  ---------------------------------------------------
  free energy    TOTEN  =      3088.14111546 eV

  energy without entropy =     3088.18780273  energy(sigma->0) =     3088.16445910


--------------------------------------------------------------------------------------------------------




--------------------------------------- Iteration      1(   3)  ---------------------------------------


    EDDIAG:  cpu time    2.5455: real time    2.5488
  RMM-DIIS:  cpu time    3.3728: real time    3.3770
    ORTHCH:  cpu time    0.5672: real time    0.5673
       DOS:  cpu time    0.0018: real time    0.0018
    --------------------------------------------
      LOOP:  cpu time    6.4873: real time    6.4949

 eigenvalue-minimisations  :  1200
 total energy-change (2. order) :-0.2102639E+04  (-0.2909293E+04)
 number of electron     616.0000000 magnetization 
 augmentation part      616.0000000 magnetization 

 Free energy of the ion-electron system (eV)
  ---------------------------------------------------
  alpha Z        PSCENC =       530.83008810
  Ewald energy   TEWEN  =     41510.41400323
  -Hartree energ DENC   =    -68672.69545690
  -exchange      EXHF   =         0.00000000
  -V(xc)+E(xc)   XCENC  =      2272.02768079
  PAW double counting   =     25034.14638475   -25847.60581054
  entropy T*S    EENTRO =        -0.03934502
  eigenvalues    EBANDS =     -6275.25567054
  atomic energy  EATOM  =     32433.67991533
  Solvation  Ediel_sol  =         0.00000000
  ---------------------------------------------------
  free energy    TOTEN  =       985.50178919 eV

  energy without entropy =      985.54113422  energy(sigma->0) =      985.52146171


--------------------------------------------------------------------------------------------------------




--------------------------------------- Iteration      1(   4)  ---------------------------------------


    EDDIAG:  cpu time    2.5386: real time    2.5416
  RMM-DIIS:  cpu time    3.3750: real time    3.3791
    ORTHCH:  cpu time    0.5672: real time    0.5681
       DOS:  cpu time    0.0017: real time    0.0017
    --------------------------------------------
      LOOP:  cpu time    6.4824: real time    6.4906

 eigenvalue-minimisations  :  1200
 total energy-change (2. order) :-0.1375722E+04  (-0.1376738E+04)
 number of electron     616.0000000 magnetization 
 augmentation part      616.0000000 magnetization 

 Free energy of the ion-electron system (eV)
  ---------------------------------------------------
  alpha Z        PSCENC =       530.83008810
  Ewald energy   TEWEN  =     41510.41400323
  -Hartree energ DENC   =    -68672.69545690
  -exchange      EXHF   =         0.00000000
  -V(xc)+E(xc)   XCENC  =      2272.02768079
  PAW double counting   =     25034.14638475   -25847.60581054
  entropy T*S    EENTRO =        -0.02499272
  eigenvalues    EBANDS =     -7650.99172876
  atomic energy  EATOM  =     32433.67991533
  Solvation  Ediel_sol  =         0.00000000
  ---------------------------------------------------
  free energy    TOTEN  =      -390.21991672 eV

  energy without entropy =     -390.19492400  energy(sigma->0) =     -390.20742036


--------------------------------------------------------------------------------------------------------




--------------------------------------- Iteration      1(   5)  ---------------------------------------


    EDDIAG:  cpu time    2.5375: real time    2.5399
  RMM-DIIS:  cpu time    3.3657: real time    3.3701
    ORTHCH:  cpu time    0.5687: real time    0.5699
       DOS:  cpu time    0.0020: real time    0.0020
    --------------------------------------------
      LOOP:  cpu time    6.4739: real time    6.4818

 eigenvalue-minimisations  :  1200
 total energy-change (2. order) :-0.5635385E+03  (-0.5001850E+03)
 number of electron     616.0000000 magnetization 
 augmentation part      616.0000000 magnetization 

 Free energy of the ion-electron system (eV)
  ---------------------------------------------------
  alpha Z        PSCENC =       530.83008810
  Ewald energy   TEWEN  =     41510.41400323
  -Hartree energ DENC   =    -68672.69545690
  -exchange      EXHF   =         0.00000000
  -V(xc)+E(xc)   XCENC  =      2272.02768079
  PAW double counting   =     25034.14638475   -25847.60581054
  entropy T*S    EENTRO =        -0.03582408
  eigenvalues    EBANDS =     -8214.51943371
  atomic energy  EATOM  =     32433.67991533
  Solvation  Ediel_sol  =         0.00000000
  ---------------------------------------------------
  free energy    TOTEN  =      -953.75845303 eV

  energy without entropy =     -953.72262895  energy(sigma->0) =     -953.74054099


--------------------------------------------------------------------------------------------------------




--------------------------------------- Iteration      1(   6)  ---------------------------------------


    EDDIAG:  cpu time    2.5386: real time    2.5415
  RMM-DIIS:  cpu time    3.3699: real time    3.3777
    ORTHCH:  cpu time    0.5686: real time    0.5697
       DOS:  cpu time    0.0010: real time    0.0009
    --------------------------------------------
      LOOP:  cpu time    6.4780: real time    6.4898

 eigenvalue-minimisations  :  1200
 total energy-change (2. order) :-0.1917584E+03  (-0.1672581E+03)
 number of electron     616.0000000 magnetization 
 augmentation part      616.0000000 magnetization 

 Free energy of the ion-electron system (eV)
  ---------------------------------------------------
  alpha Z        PSCENC =       530.83008810
  Ewald energy   TEWEN  =     41510.41400323
  -Hartree energ DENC   =    -68672.69545690
  -exchange      EXHF   =         0.00000000
  -V(xc)+E(xc)   XCENC  =      2272.02768079
  PAW double counting   =     25034.14638475   -25847.60581054
  entropy T*S    EENTRO =        -0.00000000
  eigenvalues    EBANDS =     -8406.31366741
  atomic energy  EATOM  =     32433.67991533
  Solvation  Ediel_sol  =         0.00000000
  ---------------------------------------------------
  free energy    TOTEN  =     -1145.51686265 eV

  energy without entropy =    -1145.51686265  energy(sigma->0) =    -1145.51686265


--------------------------------------------------------------------------------------------------------




--------------------------------------- Iteration      1(   7)  ---------------------------------------


    EDDIAG:  cpu time    2.5380: real time    2.5413
  RMM-DIIS:  cpu time    3.3744: real time    3.3786
    ORTHCH:  cpu time    0.5683: real time    0.5684
       DOS:  cpu time    0.0009: real time    0.0009
    --------------------------------------------
      LOOP:  cpu time    6.4816: real time    6.4891

 eigenvalue-minimisations  :  1200
 total energy-change (2. order) :-0.5936329E+02  (-0.5498930E+02)
 number of electron     616.0000000 magnetization 
 augmentation part      616.0000000 magnetization 

 Free energy of the ion-electron system (eV)
  ---------------------------------------------------
  alpha Z        PSCENC =       530.83008810
  Ewald energy   TEWEN  =     41510.41400323
  -Hartree energ DENC   =    -68672.69545690
  -exchange      EXHF   =         0.00000000
  -V(xc)+E(xc)   XCENC  =      2272.02768079
  PAW double counting   =     25034.14638475   -25847.60581054
  entropy T*S    EENTRO =        -0.00000000
  eigenvalues    EBANDS =     -8465.67695539
  atomic energy  EATOM  =     32433.67991533
  Solvation  Ediel_sol  =         0.00000000
  ---------------------------------------------------
  free energy    TOTEN  =     -1204.88015063 eV

  energy without entropy =    -1204.88015063  energy(sigma->0) =    -1204.88015063


--------------------------------------------------------------------------------------------------------




--------------------------------------- Iteration      1(   8)  ---------------------------------------


    EDDIAG:  cpu time    2.5390: real time    2.5424
  RMM-DIIS:  cpu time    3.3727: real time    3.3774
    ORTHCH:  cpu time    0.5675: real time    0.5676
       DOS:  cpu time    0.0042: real time    0.0042
    --------------------------------------------
      LOOP:  cpu time    6.4835: real time    6.4916

 eigenvalue-minimisations  :  1200
 total energy-change (2. order) :-0.2197119E+02  (-0.1922321E+02)
 number of electron     616.0000000 magnetization 
 augmentation part      616.0000000 magnetization 

 Free energy of the ion-electron system (eV)
  ---------------------------------------------------
  alpha Z        PSCENC =       530.83008810
  Ewald energy   TEWEN  =     41510.41400323
  -Hartree energ DENC   =    -68672.69545690
  -exchange      EXHF   =         0.00000000
  -V(xc)+E(xc)   XCENC  =      2272.02768079
  PAW double counting   =     25034.14638475   -25847.60581054
  entropy T*S    EENTRO =        -0.00000000
  eigenvalues    EBANDS =     -8487.64814295
  atomic energy  EATOM  =     32433.67991533
  Solvation  Ediel_sol  =         0.00000000
  ---------------------------------------------------
  free energy    TOTEN  =     -1226.85133819 eV

  energy without entropy =    -1226.85133819  energy(sigma->0) =    -1226.85133819


--------------------------------------------------------------------------------------------------------




--------------------------------------- Iteration      1(   9)  ---------------------------------------


    EDDIAG:  cpu time    2.5372: real time    2.5406
  RMM-DIIS:  cpu time    7.2104: real time    7.2216
    ORTHCH:  cpu time    0.5670: real time    0.5680
       DOS:  cpu time    0.0013: real time    0.0013
    --------------------------------------------
      LOOP:  cpu time   10.3159: real time   10.3315

 eigenvalue-minimisations  :  2828
 total energy-change (2. order) :-0.1230274E+02  (-0.1178723E+02)
 number of electron     616.0000000 magnetization 
 augmentation part      616.0000000 magnetization 

 Free energy of the ion-electron system (eV)
  ---------------------------------------------------
  alpha Z        PSCENC =       530.83008810
  Ewald energy   TEWEN  =     41510.41400323
[...]
   -.274E+01 0.218E+03 -.748E+01   -.196E+02 -.211E+03 0.156E+02   0.224E+02 -.773E+01 -.819E+01   0.208E-05 0.303E-04 0.133E-04
   -.261E+03 -.524E+02 -.889E+02   0.259E+03 0.341E+02 0.102E+03   0.245E+01 0.183E+02 -.132E+02   0.178E-04 -.285E-04 0.539E-05
   0.261E+03 0.531E+02 0.891E+02   -.258E+03 -.348E+02 -.102E+03   -.245E+01 -.183E+02 0.132E+02   -.190E-04 0.281E-04 -.510E-05
   0.261E+03 0.527E+02 0.890E+02   -.258E+03 -.345E+02 -.102E+03   -.248E+01 -.183E+02 0.132E+02   -.185E-04 0.275E-04 -.510E-05
   -.440E+01 -.217E+03 0.826E+01   -.179E+02 0.209E+03 -.165E+02   0.223E+02 0.776E+01 0.826E+01   0.258E-05 -.309E-04 -.137E-04
   0.332E+01 0.218E+03 -.789E+01   0.190E+02 -.210E+03 0.161E+02   -.223E+02 -.773E+01 -.822E+01   -.314E-05 0.314E-04 0.141E-04
   0.333E+01 -.217E+03 0.800E+01   0.190E+02 0.210E+03 -.162E+02   -.223E+02 0.773E+01 0.824E+01   -.258E-05 -.311E-04 -.140E-04
   0.118E+03 -.995E+02 -.201E+02   -.119E+03 0.996E+02 0.202E+02   0.759E+00 -.121E+00 -.143E+00   -.392E-04 -.221E-04 0.639E-05
   0.118E+03 0.990E+02 0.198E+02   -.119E+03 -.991E+02 -.200E+02   0.748E+00 0.128E+00 0.131E+00   -.393E-04 0.229E-04 -.839E-05
   -.118E+03 -.991E+02 -.200E+02   0.119E+03 0.992E+02 0.201E+02   -.769E+00 -.117E+00 -.149E+00   0.407E-04 -.220E-04 0.560E-05
   -.118E+03 0.993E+02 0.199E+02   0.118E+03 -.995E+02 -.200E+02   -.728E+00 0.142E+00 0.127E+00   0.414E-04 0.227E-04 -.698E-05
   -.118E+03 0.994E+02 0.199E+02   0.118E+03 -.995E+02 -.201E+02   -.747E+00 0.132E+00 0.132E+00   0.402E-04 0.224E-04 -.650E-05
   0.118E+03 -.989E+02 -.201E+02   -.119E+03 0.990E+02 0.202E+02   0.772E+00 -.115E+00 -.151E+00   -.413E-04 -.224E-04 0.652E-05
   -.119E+03 -.990E+02 -.200E+02   0.119E+03 0.991E+02 0.201E+02   -.770E+00 -.116E+00 -.146E+00   0.412E-04 -.225E-04 0.678E-05
   0.118E+03 0.996E+02 0.197E+02   -.118E+03 -.997E+02 -.198E+02   0.729E+00 0.140E+00 0.120E+00   -.400E-04 0.227E-04 -.529E-05
   0.332E+03 0.198E+03 0.186E+03   -.325E+03 -.239E+03 -.220E+03   -.710E+01 0.412E+02 0.346E+02   -.434E-04 -.142E-04 -.207E-04
   -.201E+03 -.281E+03 -.297E+03   0.229E+03 0.279E+03 0.344E+03   -.276E+02 0.286E+01 -.471E+02   -.754E-04 0.174E-06 0.446E-04
   -.199E+03 0.280E+03 0.297E+03   0.227E+03 -.277E+03 -.344E+03   -.274E+02 -.296E+01 0.472E+02   -.763E-04 0.282E-05 -.419E-04
   0.202E+03 -.282E+03 -.297E+03   -.229E+03 0.279E+03 0.344E+03   0.276E+02 0.280E+01 -.471E+02   0.762E-04 0.727E-07 0.428E-04
   0.200E+03 0.280E+03 0.296E+03   -.227E+03 -.277E+03 -.344E+03   0.274E+02 -.298E+01 0.472E+02   0.774E-04 0.151E-05 -.439E-04
   -.331E+03 -.198E+03 -.186E+03   0.324E+03 0.239E+03 0.220E+03   0.726E+01 -.411E+02 -.346E+02   0.452E-04 0.161E-04 0.209E-04
   -.333E+03 0.198E+03 0.186E+03   0.326E+03 -.240E+03 -.220E+03   0.710E+01 0.412E+02 0.346E+02   0.450E-04 -.154E-04 -.183E-04
   -.331E+03 -.198E+03 -.186E+03   0.324E+03 0.239E+03 0.221E+03   0.725E+01 -.410E+02 -.347E+02   0.456E-04 0.156E-04 0.214E-04
   0.332E+03 0.199E+03 0.186E+03   -.325E+03 -.240E+03 -.220E+03   -.716E+01 0.412E+02 0.346E+02   -.462E-04 -.169E-04 -.211E-04
   0.200E+03 0.280E+03 0.297E+03   -.228E+03 -.277E+03 -.344E+03   0.274E+02 -.292E+01 0.472E+02   0.766E-04 0.186E-06 -.445E-04
   0.201E+03 -.281E+03 -.297E+03   -.228E+03 0.278E+03 0.344E+03   0.276E+02 0.290E+01 -.471E+02   0.768E-04 -.145E-05 0.429E-04
   -.199E+03 0.280E+03 0.297E+03   0.227E+03 -.277E+03 -.344E+03   -.274E+02 -.303E+01 0.472E+02   -.753E-04 -.912E-07 -.452E-04
   0.331E+03 -.198E+03 -.186E+03   -.324E+03 0.239E+03 0.221E+03   -.725E+01 -.411E+02 -.347E+02   -.439E-04 0.164E-04 0.209E-04
   -.333E+03 0.198E+03 0.186E+03   0.325E+03 -.239E+03 -.221E+03   0.710E+01 0.411E+02 0.346E+02   0.466E-04 -.166E-04 -.206E-04
   0.331E+03 -.197E+03 -.186E+03   -.323E+03 0.238E+03 0.221E+03   -.729E+01 -.410E+02 -.347E+02   -.443E-04 0.145E-04 0.204E-04
   -.201E+03 -.282E+03 -.297E+03   0.229E+03 0.279E+03 0.344E+03   -.276E+02 0.279E+01 -.471E+02   -.757E-04 -.104E-05 0.442E-04
 -----------------------------------------------------------------------------------------------
   0.109E+00 -.262E-01 -.320E-01   0.711E-12 0.853E-12 0.568E-12   -.993E-01 0.112E-01 0.652E-02   0.217E-04 0.996E-06 0.165E-05
 
 
 POSITION                                       TOTAL-FORCE (eV/Angst)
 -----------------------------------------------------------------------------------
     21.35956     25.01536     -4.53106        -0.000046      0.000739     -0.001212
     20.17206     24.30895     -2.78155         0.003802      0.003326      0.002807
     21.35425     19.49689      1.08848        -0.000592      0.000982      0.001275
     12.77192     11.51875      1.55016         0.000598      0.000260     -0.000973
     13.96137      7.73752     -0.96978        -0.002670     -0.003005     -0.003030
      2.58509     20.71780     -3.85460        -0.003560     -0.002185     -0.002833
     13.96076     10.81229      3.29868        -0.003391      0.003538      0.003416
     12.77593      7.02885      0.78019         0.001203     -0.000298      0.001113
      8.79127     11.32420      0.10708         0.003885      0.002183      0.002921
      1.39566     20.01028     -2.10682         0.001342      0.000618      0.001959
      2.58692     23.79102      0.41110        -0.003872      0.003446      0.002857
      8.79190      7.22226      2.22783         0.003485     -0.003463     -0.003685
     20.16697     20.20769     -0.65943         0.003949     -0.002655     -0.003524
      1.40035     24.49895     -1.33841        -0.000066      0.000546     -0.001380
      9.97945      6.51387      3.97653        -0.001052     -0.000020      0.001029
      9.97815     12.03352     -1.64172        -0.000415     -0.000402     -0.001217
     18.55118      0.30540      0.48742         0.004171      0.005155     -0.000055
     19.14078      1.36595      2.68856         0.000176      0.001950      0.002573
     19.12838     17.18640     -0.37204        -0.000514     -0.000570     -0.000906
     14.98893     13.83877      3.00630         0.002198      0.001963     -0.001073
     14.99868      4.71564     -0.68530         0.001198     -0.001413     -0.000556
      4.20146     18.75408     -1.36027        -0.004405     -0.002208      0.000629
     15.57837     12.77626      0.80598        -0.003977      0.003854      0.000223
     15.58293      5.77175      1.51926        -0.004403     -0.001800      0.002127
      7.16989     13.28650     -2.38391         0.003601      0.003662     -0.000885
      3.61897     17.69503     -3.56405         0.000599     -0.001824     -0.001934
      3.61499      0.84818      5.88389         0.001372     -0.000140      0.000295
      7.75572      4.20151      2.51232        -0.002093     -0.002158     -0.000747
     18.54521     18.24466      1.83190         0.005331     -0.003570      0.000679
      4.20452     -0.21001      3.68149        -0.003364      0.005815      0.000423
      7.17294      5.25524      4.71850         0.004381     -0.001326      0.001743
      7.75817     14.34925     -0.18329         0.000337      0.000751      0.002300
     17.62439      1.43185      0.22075         0.003539      0.000908     -0.001210
     18.23895      2.49500      2.35734        -0.000686      0.000989      0.001504
     18.22775     16.05692     -0.03905        -0.001130     -0.001676     -0.001381
     15.89107     14.96738      2.67415         0.000056      0.000628      0.002027
     15.90032      3.58623     -0.35388         0.000567     -0.000504     -0.000945
      5.12996     17.62934     -1.09276        -0.002467     -0.001099      0.001606
     16.50487     13.90270      0.53813        -0.004362     -0.000235     -0.002348
     16.51314      4.64773      1.78368        -0.003520     -0.001263      0.002404
      6.24233     14.41189     -2.65156         0.004178      0.000165     -0.001901
      4.51912     16.56547     -3.22986         0.000522     -0.000333     -0.000626
      4.51699      1.97752      5.55389         0.000701      0.000327      0.002137
      6.85441      3.07181      2.84302        -0.001268     -0.000604     -0.000947
     17.61593     17.12024      2.09808         0.003033     -0.002084      0.001900
      5.13094      0.91692      3.41580        -0.003915      0.000018     -0.001329
      6.24281      4.13090      4.98223         0.002837     -0.002053      0.001897
      6.85511     15.47697     -0.51537         0.000340      0.000665      0.001308
     16.88423      0.41808      5.43364         0.004205      0.000491     -0.002667
     18.11416      3.55745      3.24514        -0.004076     -0.000034      0.001990
     18.10267     14.99394     -0.92618        -0.003766      0.000077     -0.001781
     16.01439     17.06221     -2.82687         0.003725     -0.000737      0.000973
     16.02659      1.49204      5.14635         0.003395     -0.000067     -0.002431
      5.87057     17.61282      0.08310        -0.004143     -0.000606      0.001953
     17.24557     13.91996     -0.63763        -0.004172      0.001123     -0.002213
     17.25505      4.63033      2.95869        -0.005366     -0.000765      0.002407
      5.50322     13.39679      2.56062         0.004901     -0.000000     -0.002107
      4.64600     14.47042      2.27152         0.002059      0.000078     -0.001969
      4.64036      4.07072      0.05484         0.003525     -0.000690      0.001509
      6.72930      2.01054      1.95391        -0.003652     -0.000140     -0.002352
     16.87306     18.13515     -3.11445         0.005355     -0.000953      0.001378
      5.87192      0.93619      2.24031        -0.004940      0.000682     -0.001928
      5.49949      5.14391     -0.23057         0.005133     -0.001209      0.002091
      6.72913     16.54002      0.37152        -0.002875      0.000473      0.001975
     20.19917     25.27161     -3.79551         0.002156      0.002829      0.000569
     20.19226     19.24454      0.35404         0.001641     -0.001209     -0.001365
     13.93286     11.77495      2.28466        -0.002620      0.001038      0.001226
     13.93585      6.77396      0.04333        -0.001128     -0.002215     -0.000696
      2.55756     19.75542     -2.84042        -0.001723     -0.001893     -0.001010
      8.81735     12.28752     -0.90623         0.002306      0.001218      0.000945
      2.56040     24.75446     -0.60216        -0.002509      0.001724      0.000256
      8.81840      6.25923      3.24141         0.001499     -0.001571     -0.001305
     17.50586      2.49555      1.14673         0.000526      0.001166      0.000544
     17.49599     16.05645      1.17237         0.001472     -0.000512      0.000065
     16.62376     14.96702      1.46335        -0.000164      0.000917     -0.000208
     16.63310      3.58492      0.85696        -0.000583     -0.000223      0.000256
      5.25044     16.56537     -2.01815        -0.000487     -0.000322     -0.000398
      6.12284     15.47628     -1.72647         0.000900      0.001129     -0.000652
      5.24979      1.97945      4.34310        -0.000072      0.000240     -0.000271
      6.12235      3.06917      4.05431         0.000742     -0.000692     -0.001098
      0.59545     22.77040     -4.91714        -0.001351      0.002806      0.001610
     22.16069     22.25557     -1.72144         0.001037      0.000196      0.000529
     10.78307      9.27228      1.16571         0.000437      0.002991      0.000070
     11.97056      9.78987     -2.02808        -0.004822      0.000907      0.000641
      7.30934      2.03815      1.03170        -0.004802     -0.000872     -0.003765
     17.13878     13.08548     -1.33013        -0.006940      0.001093     -0.004186
     17.14745      5.46386      3.65216        -0.007243     -0.002194      0.004336
     16.99064     -0.41593      4.74047         0.006607      0.001745     -0.003565
     16.98091     18.96911     -2.42149         0.006615     -0.001801      0.003614
     15.43389     17.03683     -1.90484         0.004103      0.000510      0.003401
      4.06656     14.49612      1.34888         0.004233     -0.000801     -0.003049
      4.05953      4.04388      0.97663         0.004240      0.001079      0.003644
     18.68259     15.01999     -1.84853        -0.004564     -0.000863     -0.004043
      5.60748      5.97647      0.46404         0.006647     -0.001903      0.003519
      5.61065     12.56219      1.86833         0.006147      0.001601     -0.003625
      5.76214     18.44685      0.77588        -0.005469     -0.001378      0.003739
      7.30932     16.51509      1.29379        -0.004190      0.000759      0.003100
     15.44593      1.51817      4.22443         0.005136     -0.000313     -0.003140
     18.69511      3.53151      4.16685        -0.004172      0.001002      0.003908
      5.76504      0.10305      1.54621        -0.006742      0.001157     -0.003949
     14.65968     11.70138     -2.27090        -0.006391      0.003864      0.005350
      8.09182      7.36555      1.40934         0.006421     -0.004098     -0.006470
     10.36972     12.53275     -2.52225        -0.001362     -0.001710     -0.003549
      1.00236     19.51197     -1.22653         0.003556      0.001694      0.004677
      3.28466     24.67951     -5.15760        -0.005891      0.004370      0.004937
     10.37007      7.04691     -1.53078        -0.003280      0.001469      0.003749
     21.75187     25.51332     -5.41198        -0.001521     -0.000831     -0.003949
     19.46653     20.35265     -1.47736         0.006800     -0.004151     -0.005744
      1.00854     24.99765     -2.21914         0.001314     -0.001299     -0.003636
     12.37892     12.01694      0.66967         0.001461     -0.002184     -0.003673
     14.66203      6.84949      4.59887        -0.005788     -0.004368     -0.005786
     19.47242     24.16639     -1.96245         0.005655      0.004313      0.004715
     12.38474      6.53006      1.66115         0.002704      0.001284      0.004035
      8.09159     11.18030      0.92591         0.006225      0.003343      0.005206
      3.28748     19.82911      1.71541        -0.006300     -0.004169     -0.005932
     21.74424     20.02899     -4.41907        -0.002274      0.001746      0.003908
     21.99108     23.96020     -3.98804        -0.000779      0.001530      0.000181
     21.25518     23.52042     -2.92134         0.001737      0.002793      0.002100
     21.98846     20.55035      0.54519        -0.000771      0.000975      0.000753
     12.14102     10.46345      2.09349         0.000115     -0.000838      0.000510
     12.87791      8.52529     -0.82849        -0.001358     -0.002772     -0.002341
      1.50069     21.50499     -3.71691        -0.001212     -0.001136     -0.000784
     12.87765     10.02361      3.15971        -0.002561      0.001476      0.002273
     12.14326      8.08403      0.23849         0.001028     -0.000853     -0.000253
      9.87548     10.53721     -0.03310         0.002259      0.000775      0.002095
      0.76364     21.06453     -2.65118         0.001981      0.000592      0.001738
      1.50372     23.00276      0.27030        -0.002761      0.002206      0.002694
      9.87596      8.00949      2.36720         0.002549     -0.002297     -0.002559
     21.25267     20.99287     -0.52056         0.001730     -0.001667     -0.001291
      0.76843     23.44356     -0.79640        -0.000007      0.000732      0.000613
     10.61191      7.56850      3.43344        -0.001199     -0.001060     -0.000346
     10.61093     10.97879     -1.09941        -0.000011     -0.001010     -0.000211
     19.25997      0.34589      1.71347         0.003479      0.001477      0.000195
     19.25232     18.20411      0.60492         0.003629     -0.001261     -0.000315
     14.87010     12.81758      2.03231        -0.004329      0.000518      0.000071
     14.87494      5.73236      0.29273        -0.002895     -0.001125     -0.000048
      3.49554     18.71366     -2.58799        -0.002933     -0.001248     -0.000872
      7.87828     13.32862     -1.15769         0.003769      0.000766      0.000170
      3.49613     -0.17100      4.90785        -0.003779      0.000874      0.000362
      7.87986      5.21728      3.49128         0.002502     -0.000785     -0.000503
     18.71211     24.31510      0.32405         0.007944      0.001287     -0.003696
     19.75959      1.30386      3.74817        -0.002489      0.000559      0.002753
     19.74259     17.25074     -1.43420        -0.002723      0.000767     -0.004353
     14.36808     14.80962     -2.32227         0.001512     -0.000444      0.006087
     14.38503      3.74873      4.64107         0.002345      0.000311     -0.004040
      4.04039     19.67999     -0.56839        -0.006629     -0.002345      0.001624
     15.42079     11.84858      0.01547        -0.006845      0.000703     -0.003238
     15.42189      6.69605      2.31302        -0.006931     -0.002839      0.002769
      7.33035     11.32767      3.21318         0.006687      0.000195     -0.003698
      3.00650     16.72689      1.76152         0.002773     -0.001183     -0.004200
      2.99429      1.81671      0.55531         0.002065     -0.000810      0.004269
      8.37020      4.26738      1.45041        -0.002433      0.000734     -0.005387
     18.70467     20.20173     -3.76364         0.007640     -0.002469      0.004474
      4.04868     24.83217     -2.87075        -0.008071      0.000799     -0.004602
      7.33308      7.21031     -0.87478         0.005564     -0.003398      0.001316
      8.37755     14.28868      0.87614        -0.003728     -0.000470      0.002918
 -----------------------------------------------------------------------------------
    total drift:                                0.009439     -0.014994     -0.025500


--------------------------------------------------------------------------------------------------------



  FREE ENERGIE OF THE ION-ELECTRON SYSTEM (eV)
  ---------------------------------------------------
  free  energy   TOTEN  =     -1162.02166523 eV

  energy  without entropy=    -1162.02166523  energy(sigma->0) =    -1162.02166523
 


--------------------------------------------------------------------------------------------------------


    POTLOK:  cpu time    0.1693: real time    0.1704


--------------------------------------------------------------------------------------------------------


 Quasi-Newton relaxation of ions (Broydens 2nd method)
  g(Force)  = 0.184E-03   g(Stress)= 0.167E-04

 Reset! Starting new Quasi-Newton update for ions 


--------------------------------------------------------------------------------------------------------


  
 reached required accuracy - stopping structural energy minimisation
 writing wavefunctions
     LOOP+:  cpu time  380.1027: real time  386.8581
    4ORBIT:  cpu time    0.0000: real time    0.0000

 total amount of memory used by VASP MPI-rank0   104524. kBytes
=======================================================================

   base      :      30000. kBytes
   nonlr-proj:       6376. kBytes
   fftplans  :      11204. kBytes
   grid      :      19494. kBytes
   one-center:        606. kBytes
   wavefun   :      36844. kBytes
 
  
  
 General timing and accounting informations for this job:
 ========================================================
  
                  Total CPU time used (sec):      467.553
                            User time (sec):      418.082
                          System time (sec):       49.472
                         Elapsed time (sec):      484.155
  
                   Maximum memory used (kb):     1000456.
                   Average memory used (kb):           0.
  
                          Minor page faults:       236185
                          Major page faults:           10
                 Voluntary context switches:         9997
