       N       E                     dE             d eps       ncg     rms          rms(c)
RMM:   1     0.841075625037E+04    0.84108E+04   -0.21745E+05  1200   0.123E+03
RMM:   2     0.321269325708E+04   -0.51981E+04   -0.67069E+04  1200   0.275E+02
RMM:   3     0.113286041553E+04   -0.20798E+04   -0.29539E+04  1200   0.180E+02
RMM:   4    -0.308794865571E+03   -0.14417E+04   -0.14536E+04  1200   0.153E+02
RMM:   5    -0.924265858052E+03   -0.61547E+03   -0.54713E+03  1200   0.100E+02
RMM:   6    -0.113970201010E+04   -0.21544E+03   -0.18783E+03  1200   0.625E+01
RMM:   7    -0.120297852262E+04   -0.63277E+02   -0.59113E+02  1200   0.353E+01
RMM:   8    -0.122657704531E+04   -0.23599E+02   -0.20397E+02  1200   0.214E+01
RMM:   9    -0.123943146055E+04   -0.12854E+02   -0.12326E+02  2787   0.125E+01
RMM:  10    -0.124039598134E+04   -0.96452E+00   -0.93040E+00  3233   0.383E+00
RMM:  11    -0.124044861824E+04   -0.52637E-01   -0.41523E-01  2832   0.755E-01
RMM:  12    -0.124045187180E+04   -0.32536E-02   -0.30559E-02  3228   0.217E-01    0.576E+01
RMM:  13    -0.116864887785E+04    0.71803E+02   -0.16321E+02  2400   0.164E+01    0.319E+01
RMM:  14    -0.115365368304E+04    0.14995E+02   -0.44262E+01  2400   0.850E+00    0.148E+01
RMM:  15    -0.115199559406E+04    0.16581E+01   -0.10441E+01  2400   0.446E+00    0.496E+00
RMM:  16    -0.115175020593E+04    0.24539E+00   -0.84514E-01  2449   0.143E+00    0.144E+00
RMM:  17    -0.115171794096E+04    0.32265E-01   -0.16898E-01  2422   0.667E-01    0.514E-01
RMM:  18    -0.115170934700E+04    0.85940E-02   -0.57913E-02  2403   0.303E-01    0.292E-01
RMM:  19    -0.115171019470E+04   -0.84770E-03   -0.13387E-02  2412   0.165E-01    0.154E-01
RMM:  20    -0.115171892196E+04   -0.87273E-02   -0.12749E-02  2400   0.132E-01    0.105E-01
RMM:  21    -0.115172303597E+04   -0.41140E-02   -0.61318E-03  2400   0.840E-02    0.813E-02
RMM:  22    -0.115172720797E+04   -0.41720E-02   -0.21060E-03  2400   0.574E-02    0.390E-02
RMM:  23    -0.115173001580E+04   -0.28078E-02   -0.40309E-04  2427   0.257E-02    0.272E-02
RMM:  24    -0.115173352787E+04   -0.35121E-02   -0.40692E-04  2424   0.233E-02    0.203E-02
RMM:  25    -0.115173553290E+04   -0.20050E-02   -0.26843E-04  2400   0.179E-02    0.132E-02
RMM:  26    -0.115173656636E+04   -0.10335E-02   -0.80640E-05  2328   0.917E-03    0.502E-03
RMM:  27    -0.115173701486E+04   -0.44850E-03   -0.27527E-05  2130   0.510E-03    0.390E-03
RMM:  28    -0.115173723672E+04   -0.22186E-03   -0.13416E-05  2010   0.376E-03    0.151E-03
RMM:  29    -0.115173729647E+04   -0.59746E-04   -0.32873E-06  1697   0.187E-03    0.735E-04
RMM:  30    -0.115173731973E+04   -0.23262E-04   -0.11152E-06  1527   0.116E-03    0.552E-04
RMM:  31    -0.115173732409E+04   -0.43635E-05   -0.33465E-07  1245   0.719E-04    0.343E-04
RMM:  32    -0.115173732522E+04   -0.11275E-05   -0.14917E-07  1114   0.557E-04    0.311E-04
RMM:  33    -0.115173732550E+04   -0.28142E-06   -0.55582E-08   909   0.392E-04
   1 F= -.11619185E+04 E0= -.11619185E+04  d E =-.116192E+04
