 vasp.6.0.8 29Jun18 (build Mar 14 2019 11:44:20) complex                        
  
 executed on             LinuxIFC date 2021.01.18  17:31:26
 running   64 mpi-ranks, with    1 threads/rank
 distrk:  each k-point on   64 cores,    1 groups
 distr:  one band on NCORES_PER_BAND=   4 cores,   16 groups


--------------------------------------------------------------------------------------------------------


 INCAR:
 POTCAR:    PAW_PBE C 08Apr2002                   
 POTCAR:    PAW_PBE Zn 06Sep2000                  
 POTCAR:    PAW_PBE H 15Jun2001                   
 POTCAR:    PAW_PBE N 08Apr2002                   
 POTCAR:    PAW_PBE O 08Apr2002                   
 POTCAR:    PAW_PBE C 08Apr2002                   
   VRHFIN =C: s2p2                                                              
   LEXCH  = PE                                                                  
   EATOM  =   147.1560 eV,   10.8157 Ry                                         
                                                                                
   TITEL  = PAW_PBE C 08Apr2002                                                 
   LULTRA =        F    use ultrasoft PP ?                                      
   IUNSCR =        1    unscreen: 0-lin 1-nonlin 2-no                           
   RPACOR =    1.200    partial core radius                                     
   POMASS =   12.011; ZVAL   =    4.000    mass and valenz                      
   RCORE  =    1.500    outmost cutoff radius                                   
   RWIGS  =    1.630; RWIGS  =    0.863    wigner-seitz radius (au A)           
   ENMAX  =  400.000; ENMIN  =  300.000 eV                                      
   ICORE  =        2    local potential                                         
   LCOR   =        T    correct aug charges                                     
   LPAW   =        T    paw PP                                                  
   EAUG   =  644.873                                                            
   DEXC   =    0.000                                                            
   RMAX   =    1.529    core radius for proj-oper                               
   RAUG   =    1.300    factor for augmentation sphere                          
   RDEP   =    1.501    radius for radial grids                                 
   RDEPT  =    1.300    core radius for aug-charge                              
                                                                                
   Atomic configuration                                                         
    4 entries                                                                   
     n  l   j            E        occ.                                          
     1  0  0.50      -273.3789   2.0000                                         
     2  0  0.50       -13.7508   2.0000                                         
     2  1  0.50        -5.2854   2.0000                                         
     3  2  1.50        -5.4423   0.0000                                         
   Description                                                                  
     l       E           TYP  RCUT    TYP  RCUT                                 
     0    -13.7508458     23  1.200                                             
     0     -8.2022199     23  1.200                                             
     1     -5.2854383     23  1.500                                             
     1     34.0145650     23  1.500                                             
     2     -5.4423304      7  1.500                                             
  local pseudopotential read in
  partial core-charges read in
  partial kinetic energy density read in
  atomic valenz-charges read in
  non local Contribution for L=           0  read in
    real space projection operators read in
  non local Contribution for L=           0  read in
    real space projection operators read in
  non local Contribution for L=           1  read in
    real space projection operators read in
  non local Contribution for L=           1  read in
    real space projection operators read in
    PAW grid and wavefunctions read in
 
   number of l-projection  operators is LMAX  =           4
   number of lm-projection operators is LMMAX =           8
 
 POTCAR:    PAW_PBE Zn 06Sep2000                  
   VRHFIN =Zn: d10 p2                                                           
   LEXCH  = PE                                                                  
   EATOM  =  1748.8345 eV,  128.5357 Ry                                         
                                                                                
   TITEL  = PAW_PBE Zn 06Sep2000                                                
   LULTRA =        F    use ultrasoft PP ?                                      
   IUNSCR =        1    unscreen: 0-lin 1-nonlin 2-no                           
   RPACOR =    2.000    partial core radius                                     
   POMASS =   65.390; ZVAL   =   12.000    mass and valenz                      
   RCORE  =    2.300    outmost cutoff radius                                   
   RWIGS  =    2.400; RWIGS  =    1.270    wigner-seitz radius (au A)           
   ENMAX  =  276.723; ENMIN  =  207.542 eV                                      
   RCLOC  =    1.828    cutoff for local pot                                    
   LCOR   =        T    correct aug charges                                     
   LPAW   =        T    paw PP                                                  
   EAUG   =  575.892                                                            
   DEXC   =    0.000                                                            
   RMAX   =    2.347    core radius for proj-oper                               
   RAUG   =    1.300    factor for augmentation sphere                          
   RDEP   =    2.324    radius for radial grids                                 
   RDEPT  =    1.788    core radius for aug-charge                              
                                                                                
   Atomic configuration                                                         
    9 entries                                                                   
     n  l   j            E        occ.                                          
     1  0  0.50     -9524.6913   2.0000                                         
     2  0  0.50     -1158.1882   2.0000                                         
     2  1  1.50     -1003.8506   6.0000                                         
     3  0  0.50      -129.2194   2.0000                                         
     3  1  1.50       -83.3890   6.0000                                         
     3  2  2.50       -10.1410  10.0000                                         
     4  0  0.50        -5.9785   2.0000                                         
     4  1  0.50        -4.0817   0.0000                                         
     4  3  2.50        -1.3606   0.0000                                         
   Description                                                                  
     l       E           TYP  RCUT    TYP  RCUT                                 
     2    -10.1410010     23  2.300                                             
     2    -11.5015836     23  2.300                                             
     0     -5.9785163     23  2.300                                             
     0      1.1858015     23  2.300                                             
     1     -2.7211652     23  2.300                                             
     1     13.2444212     23  2.300                                             
  local pseudopotential read in
  partial core-charges read in
  partial kinetic energy density read in
  atomic valenz-charges read in
  non local Contribution for L=           2  read in
    real space projection operators read in
  non local Contribution for L=           2  read in
    real space projection operators read in
  non local Contribution for L=           0  read in
    real space projection operators read in
  non local Contribution for L=           0  read in
    real space projection operators read in
  non local Contribution for L=           1  read in
    real space projection operators read in
  non local Contribution for L=           1  read in
    real space projection operators read in
    PAW grid and wavefunctions read in
 
   number of l-projection  operators is LMAX  =           6
   number of lm-projection operators is LMMAX =          18
 
 POTCAR:    PAW_PBE H 15Jun2001                   
   VRHFIN =H: ultrasoft test                                                    
   LEXCH  = PE                                                                  
   EATOM  =    12.4884 eV,    0.9179 Ry                                         
                                                                                
   TITEL  = PAW_PBE H 15Jun2001                                                 
   LULTRA =        F    use ultrasoft PP ?                                      
   IUNSCR =        0    unscreen: 0-lin 1-nonlin 2-no                           
   RPACOR =    0.000    partial core radius                                     
   POMASS =    1.000; ZVAL   =    1.000    mass and valenz                      
   RCORE  =    1.100    outmost cutoff radius                                   
   RWIGS  =    0.700; RWIGS  =    0.370    wigner-seitz radius (au A)           
   ENMAX  =  250.000; ENMIN  =  200.000 eV                                      
   RCLOC  =    0.701    cutoff for local pot                                    
   LCOR   =        T    correct aug charges                                     
   LPAW   =        T    paw PP                                                  
   EAUG   =  400.000                                                            
   RMAX   =    1.123    core radius for proj-oper                               
   RAUG   =    1.200    factor for augmentation sphere                          
   RDEP   =    1.112    radius for radial grids                                 
   RDEPT  =    0.926    core radius for aug-charge                              
                                                                                
   Atomic configuration                                                         
    2 entries                                                                   
     n  l   j            E        occ.                                          
     1  0  0.50        -6.4927   1.0000                                         
     2  1  0.50        -3.4015   0.0000                                         
   Description                                                                  
     l       E           TYP  RCUT    TYP  RCUT                                 
     0     -6.4927494     23  1.100                                             
     0      6.8029130     23  1.100                                             
     1     -4.0817478     23  1.100                                             
  local pseudopotential read in
  atomic valenz-charges read in
  non local Contribution for L=           0  read in
    real space projection operators read in
  non local Contribution for L=           0  read in
    real space projection operators read in
  non local Contribution for L=           1  read in
    real space projection operators read in
    PAW grid and wavefunctions read in
 
   number of l-projection  operators is LMAX  =           3
   number of lm-projection operators is LMMAX =           5
 
 POTCAR:    PAW_PBE N 08Apr2002                   
   VRHFIN =N: s2p3                                                              
   LEXCH  = PE                                                                  
   EATOM  =   264.5486 eV,   19.4438 Ry                                         
                                                                                
   TITEL  = PAW_PBE N 08Apr2002                                                 
   LULTRA =        F    use ultrasoft PP ?                                      
   IUNSCR =        1    unscreen: 0-lin 1-nonlin 2-no                           
   RPACOR =    1.200    partial core radius                                     
   POMASS =   14.001; ZVAL   =    5.000    mass and valenz                      
   RCORE  =    1.500    outmost cutoff radius                                   
   RWIGS  =    1.400; RWIGS  =    0.741    wigner-seitz radius (au A)           
   ENMAX  =  400.000; ENMIN  =  300.000 eV                                      
   ICORE  =        2    local potential                                         
   LCOR   =        T    correct aug charges                                     
   LPAW   =        T    paw PP                                                  
   EAUG   =  627.112                                                            
   DEXC   =    0.000                                                            
   RMAX   =    1.529    core radius for proj-oper                               
   RAUG   =    1.300    factor for augmentation sphere                          
   RDEP   =    1.514    radius for radial grids                                 
   RDEPT  =    1.338    core radius for aug-charge                              
                                                                                
   Atomic configuration                                                         
    4 entries                                                                   
     n  l   j            E        occ.                                          
     1  0  0.50      -384.7179   2.0000                                         
     2  0  0.50       -18.5828   2.0000                                         
     2  1  0.50        -7.0898   3.0000                                         
     3  2  1.50        -6.8029   0.0000                                         
   Description                                                                  
     l       E           TYP  RCUT    TYP  RCUT                                 
     0    -18.5828119     23  1.200                                             
     0    -13.5018863     23  1.200                                             
     1     -7.0897853     23  1.500                                             
     1      9.5240782     23  1.500                                             
     2     -6.8029130      7  1.500                                             
  local pseudopotential read in
  partial core-charges read in
  partial kinetic energy density read in
  atomic valenz-charges read in
  non local Contribution for L=           0  read in
    real space projection operators read in
  non local Contribution for L=           0  read in
    real space projection operators read in
  non local Contribution for L=           1  read in
    real space projection operators read in
  non local Contribution for L=           1  read in
    real space projection operators read in
    PAW grid and wavefunctions read in
 
   number of l-projection  operators is LMAX  =           4
   number of lm-projection operators is LMMAX =           8
 
 POTCAR:    PAW_PBE O 08Apr2002                   
   VRHFIN =O: s2p4                                                              
   LEXCH  = PE                                                                  
   EATOM  =   432.3788 eV,   31.7789 Ry                                         
                                                                                
   TITEL  = PAW_PBE O 08Apr2002                                                 
   LULTRA =        F    use ultrasoft PP ?                                      
   IUNSCR =        1    unscreen: 0-lin 1-nonlin 2-no                           
   RPACOR =    1.200    partial core radius                                     
   POMASS =   16.000; ZVAL   =    6.000    mass and valenz                      
   RCORE  =    1.520    outmost cutoff radius                                   
   RWIGS  =    1.550; RWIGS  =    0.820    wigner-seitz radius (au A)           
   ENMAX  =  400.000; ENMIN  =  300.000 eV                                      
   ICORE  =        2    local potential                                         
   LCOR   =        T    correct aug charges                                     
   LPAW   =        T    paw PP                                                  
   EAUG   =  605.392                                                            
   DEXC   =    0.000                                                            
   RMAX   =    1.553    core radius for proj-oper                               
   RAUG   =    1.300    factor for augmentation sphere                          
   RDEP   =    1.550    radius for radial grids                                 
   RDEPT  =    1.329    core radius for aug-charge                              
                                                                                
   Atomic configuration                                                         
    4 entries                                                                   
     n  l   j            E        occ.                                          
     1  0  0.50      -514.6923   2.0000                                         
     2  0  0.50       -23.9615   2.0000                                         
     2  1  0.50        -9.0305   4.0000                                         
     3  2  1.50        -9.5241   0.0000                                         
   Description                                                                  
     l       E           TYP  RCUT    TYP  RCUT                                 
     0    -23.9615318     23  1.200                                             
     0     -9.5240782     23  1.200                                             
     1     -9.0304911     23  1.520                                             
     1      8.1634956     23  1.520                                             
     2     -9.5240782      7  1.500                                             
  local pseudopotential read in
  partial core-charges read in
  partial kinetic energy density read in
  kinetic energy density of atom read in
  atomic valenz-charges read in
  non local Contribution for L=           0  read in
    real space projection operators read in
  non local Contribution for L=           0  read in
    real space projection operators read in
  non local Contribution for L=           1  read in
    real space projection operators read in
  non local Contribution for L=           1  read in
    real space projection operators read in
    PAW grid and wavefunctions read in
 
   number of l-projection  operators is LMAX  =           4
   number of lm-projection operators is LMMAX =           8
 
 Optimization of the real space projectors (new method)

 maximal supplied QI-value         = 25.13
 optimisation between [QCUT,QGAM] = [ 12.32, 24.88] = [ 42.47,173.37] Ry 
 Optimized for a Real-space Cutoff    1.06 Angstroem

   l    n(q)    QCUT    max X(q) W(low)/X(q) W(high)/X(q)  e(spline) 
   0      8    12.315   115.676    0.34E-03    0.18E-03    0.23E-06
   0      8    12.315    87.132    0.34E-03    0.18E-03    0.22E-06
   1      7    12.315     4.429    0.45E-03    0.12E-03    0.18E-06
   1      7    12.315     2.733    0.35E-03    0.97E-04    0.15E-06
 Optimization of the real space projectors (new method)

 maximal supplied QI-value         = 16.25
 optimisation between [QCUT,QGAM] = [ 12.51, 25.03] = [ 43.85,175.40] Ry 
 Optimized for a Real-space Cutoff    1.31 Angstroem

   l    n(q)    QCUT    max X(q) W(low)/X(q) W(high)/X(q)  e(spline) 
   2      9    12.514    46.356    0.36E-03    0.54E-03    0.48E-06
   2      9    12.514    41.843    0.37E-03    0.56E-03    0.49E-06
   0     10    12.514    48.958    0.13E-03    0.28E-03    0.23E-06
   0     10    12.514    32.776    0.12E-03    0.26E-03    0.22E-06
   1      9    12.514    17.787    0.44E-03    0.44E-04    0.36E-06
   1      9    12.514    14.435    0.39E-03    0.39E-04    0.32E-06
 Optimization of the real space projectors (new method)

 maximal supplied QI-value         = 34.20
 optimisation between [QCUT,QGAM] = [ 12.31, 24.97] = [ 42.46,174.58] Ry 
 Optimized for a Real-space Cutoff    1.00 Angstroem

   l    n(q)    QCUT    max X(q) W(low)/X(q) W(high)/X(q)  e(spline) 
   0      7    12.313    19.460    0.14E-03    0.42E-03    0.16E-06
   0      7    12.313    12.209    0.12E-03    0.40E-03    0.16E-06
   1      7    12.313     4.655    0.33E-03    0.59E-03    0.89E-07
 Optimization of the real space projectors (new method)

 maximal supplied QI-value         = 25.13
 optimisation between [QCUT,QGAM] = [ 12.32, 24.88] = [ 42.47,173.37] Ry 
 Optimized for a Real-space Cutoff    1.20 Angstroem

   l    n(q)    QCUT    max X(q) W(low)/X(q) W(high)/X(q)  e(spline) 
   0      9    12.315    79.467    0.14E-03    0.22E-04    0.37E-06
   0      9    12.315    66.151    0.14E-03    0.23E-04    0.36E-06
   1      8    12.315    22.077    0.30E-03    0.54E-03    0.45E-06
   1      8    12.315    15.894    0.30E-03    0.55E-03    0.45E-06
 Optimization of the real space projectors (new method)

 maximal supplied QI-value         = 24.76
 optimisation between [QCUT,QGAM] = [ 12.38, 25.00] = [ 42.90,175.06] Ry 
 Optimized for a Real-space Cutoff    1.13 Angstroem

   l    n(q)    QCUT    max X(q) W(low)/X(q) W(high)/X(q)  e(spline) 
   0      8    12.378    20.381    0.16E-03    0.54E-05    0.27E-06
   0      8    12.378    15.268    0.17E-03    0.61E-05    0.29E-06
   1      8    12.378     5.964    0.38E-03    0.23E-03    0.28E-06
   1      8    12.378     5.382    0.33E-03    0.20E-03    0.25E-06
  PAW_PBE C 08Apr2002                   :
 energy of atom  1       EATOM= -147.1560
 kinetic energy error for atom=    0.0057 (will be added to EATOM!!)
  PAW_PBE Zn 06Sep2000                  :
 energy of atom  2       EATOM=-1748.8345
 kinetic energy error for atom=    0.0020 (will be added to EATOM!!)
  PAW_PBE H 15Jun2001                   :
 energy of atom  3       EATOM=  -12.4884
 kinetic energy error for atom=    0.0004 (will be added to EATOM!!)
  PAW_PBE N 08Apr2002                   :
 energy of atom  4       EATOM= -264.5486
 kinetic energy error for atom=    0.0103 (will be added to EATOM!!)
  PAW_PBE O 08Apr2002                   :
 energy of atom  5       EATOM= -432.3788
 kinetic energy error for atom=    0.0168 (will be added to EATOM!!)
 
 
 POSCAR: Zn_H
  positions in direct lattice
  velocities in cartesian coordinates
 exchange correlation table for  LEXCH =        8
   RHO(1)=    0.500       N(1)  =     2000
   RHO(2)=  100.500       N(2)  =     4000
 


--------------------------------------------------------------------------------------------------------


 ion  position               nearest neighbor table
   1  0.935  0.969  0.154- 107 1.08 117 1.34  65 1.40
   2  0.896  0.956  0.431- 112 1.09 118 1.35  65 1.40
   3  0.935  0.787  0.890- 116 1.08 119 1.34  66 1.40
   4  0.565  0.469  0.655- 110 1.08 120 1.34  67 1.40
   5  0.604  0.300  0.114- 111 1.09 121 1.35  68 1.40
   6  0.104  0.800  0.114- 115 1.09 122 1.35  69 1.40
   7  0.604  0.456  0.931- 101 1.09 123 1.35  67 1.40
   8  0.565  0.287  0.391- 113 1.08 124 1.34  68 1.40
   9  0.396  0.456  0.431- 114 1.09 125 1.35  70 1.40
  10  0.065  0.787  0.390- 104 1.08 126 1.34  69 1.40
  11  0.104  0.956  0.930- 105 1.09 127 1.35  71 1.40
  12  0.396  0.300  0.615- 102 1.09 128 1.35  72 1.40
  13  0.896  0.800  0.614- 108 1.09 129 1.35  66 1.40
  14  0.065  0.969  0.654- 109 1.08 130 1.34  71 1.40
  15  0.435  0.287  0.892- 106 1.08 131 1.34  72 1.40
  16  0.435  0.469  0.155- 103 1.08 132 1.34  70 1.40
  17  0.822  0.020  0.099- 141 1.23 133 1.42  33 1.48
  18  0.841  0.070  0.470- 142 1.23 133 1.42  34 1.48
  19  0.840  0.686  0.574- 143 1.23 134 1.42  35 1.48
  20  0.659  0.570  0.970- 144 1.23 135 1.42  36 1.48
  21  0.660  0.186  0.075- 145 1.23 136 1.42  37 1.48
  22  0.178  0.736  0.445- 146 1.23 137 1.42  38 1.48
  23  0.678  0.520  0.600- 147 1.23 135 1.42  39 1.48
  24  0.679  0.236  0.445- 148 1.23 136 1.42  40 1.48
  25  0.321  0.520  0.100- 149 1.23 138 1.42  41 1.48
  26  0.159  0.686  0.075- 150 1.23 137 1.42  42 1.48
  27  0.159  0.070  0.970- 151 1.23 139 1.42  43 1.48
  28  0.340  0.186  0.575- 152 1.23 140 1.42  44 1.48
  29  0.821  0.736  0.945- 153 1.23 134 1.42  45 1.48
  30  0.178  0.020  0.599- 154 1.23 139 1.42  46 1.48
  31  0.321  0.236  0.946- 155 1.23 140 1.42  47 1.48
  32  0.340  0.570  0.471- 156 1.23 138 1.42  48 1.48
  33  0.779  0.063  0.098-  49 1.39  73 1.42  17 1.48
  34  0.800  0.112  0.459-  50 1.39  73 1.41  18 1.48
  35  0.799  0.644  0.586-  51 1.39  74 1.41  19 1.48
  36  0.700  0.612  0.959-  52 1.39  75 1.41  20 1.48
  37  0.701  0.144  0.086-  53 1.39  76 1.41  21 1.48
  38  0.221  0.693  0.447-  54 1.39  77 1.42  22 1.48
  39  0.720  0.563  0.598-  55 1.39  75 1.42  23 1.48
  40  0.721  0.193  0.447-  56 1.39  76 1.42  24 1.48
  41  0.279  0.562  0.099-  57 1.39  78 1.42  25 1.48
  42  0.200  0.643  0.086-  58 1.39  77 1.41  26 1.48
  43  0.200  0.112  0.959-  59 1.39  79 1.41  27 1.48
  44  0.299  0.144  0.586-  60 1.39  80 1.41  28 1.48
  45  0.779  0.694  0.947-  61 1.39  74 1.42  29 1.48
  46  0.220  0.062  0.598-  62 1.39  79 1.42  30 1.48
  47  0.279  0.193  0.947-  63 1.39  80 1.42  31 1.48
  48  0.299  0.612  0.459-  64 1.39  78 1.41  32 1.48
  49  0.749  0.058  0.920-  88 1.09  33 1.39  53 1.40
  50  0.790  0.157  0.630-  99 1.09  34 1.39  56 1.40
  51  0.790  0.599  0.414-  93 1.09  35 1.39  55 1.40
  52  0.710  0.657  0.130-  90 1.09  36 1.39  61 1.40
  53  0.710  0.099  0.914-  98 1.09  37 1.39  49 1.40
  54  0.251  0.697  0.625-  96 1.09  38 1.39  64 1.40
  55  0.750  0.558  0.421-  86 1.09  39 1.39  51 1.40
  56  0.751  0.198  0.624-  87 1.09  40 1.39  50 1.40
  57  0.249  0.558  0.921-  95 1.09  41 1.39  58 1.40
  58  0.210  0.598  0.915-  91 1.09  42 1.39  57 1.40
  59  0.210  0.157  0.131-  92 1.09  43 1.39  63 1.40
  60  0.290  0.099  0.415-  85 1.09  44 1.39  62 1.40
  61  0.749  0.698  0.124-  89 1.09  45 1.39  52 1.40
  62  0.251  0.058  0.420- 100 1.09  46 1.39  60 1.40
  63  0.249  0.197  0.125-  94 1.09  47 1.39  59 1.40
  64  0.290  0.657  0.631-  97 1.09  48 1.39  54 1.40
  65  0.891  0.986  0.291-   1 1.40   2 1.40 133 1.42
  66  0.891  0.770  0.753-   3 1.40  13 1.40 134 1.42
  67  0.609  0.486  0.792-   4 1.40   7 1.40 135 1.42
  68  0.609  0.269  0.253-   8 1.40   5 1.40 136 1.42
  69  0.109  0.769  0.253-  10 1.40   6 1.40 137 1.42
  70  0.391  0.486  0.292-  16 1.40   9 1.40 138 1.42
  71  0.109  0.986  0.791-  14 1.40  11 1.40 139 1.42
  72  0.391  0.269  0.754-  15 1.40  12 1.40 140 1.42
  73  0.770  0.107  0.275-  34 1.41  33 1.42  76 1.43
  74  0.770  0.649  0.769-  35 1.41  45 1.42  75 1.43
  75  0.730  0.608  0.776-  36 1.41  39 1.42  74 1.43
  76  0.730  0.148  0.269-  37 1.41  40 1.42  73 1.43
  77  0.230  0.648  0.270-  42 1.41  38 1.42  78 1.43
  78  0.270  0.607  0.276-  48 1.41  41 1.42  77 1.43
  79  0.230  0.107  0.776-  43 1.41  46 1.42  80 1.43
  80  0.270  0.148  0.770-  44 1.41  47 1.42  79 1.43
  81  0.019  0.878  0.022- 122 1.98 127 1.98 117 2.02 119 2.02
  82  0.981  0.878  0.522- 129 1.98 118 1.98 130 2.02 126 2.02
  83  0.481  0.378  0.523- 128 1.98 125 1.98 120 2.02 124 2.02
  84  0.519  0.378  0.023- 123 1.98 121 1.98 132 2.02 131 2.02
  85  0.313  0.096  0.275-  60 1.09
  86  0.742  0.523  0.286-  55 1.09
  87  0.743  0.233  0.759-  56 1.09
  88  0.757  0.023  0.786-  49 1.09
  89  0.757  0.733  0.259-  61 1.09
  90  0.686  0.660  0.269-  52 1.09
  91  0.186  0.595  0.775-  58 1.09
  92  0.186  0.160  0.269-  59 1.09
  93  0.813  0.596  0.275-  51 1.09
  94  0.257  0.232  0.259-  63 1.09
  95  0.257  0.523  0.787-  57 1.09
  96  0.242  0.733  0.759-  54 1.09
  97  0.313  0.660  0.770-  64 1.09
  98  0.687  0.096  0.775-  53 1.09
  99  0.814  0.160  0.769-  50 1.09
 100  0.243  0.023  0.286-  62 1.09
 101  0.629  0.457  0.066-   7 1.09
 102  0.371  0.298  0.480-  12 1.09
 103  0.447  0.482  0.022-  16 1.08
 104  0.053  0.774  0.524-  10 1.08
 105  0.129  0.957  0.065-  11 1.09
 106  0.446  0.274  0.025-  15 1.08
 107  0.947  0.981  0.021-   1 1.08
 108  0.871  0.799  0.479-  13 1.09
 109  0.053  0.981  0.521-  14 1.08
 110  0.553  0.481  0.522-   4 1.08
 111  0.629  0.298  0.980-   5 1.09
 112  0.871  0.957  0.565-   2 1.09
 113  0.554  0.274  0.524-   8 1.08
 114  0.371  0.457  0.566-   9 1.09
 115  0.129  0.798  0.979-   6 1.09
 116  0.946  0.774  0.024-   3 1.08
 117  0.965  0.931  0.207-   1 1.34 118 1.37  81 2.02
 118  0.940  0.922  0.377-   2 1.35 117 1.37  82 1.98
 119  0.965  0.825  0.837-   3 1.34 129 1.37  81 2.02
 120  0.535  0.431  0.708-   4 1.34 123 1.37  83 2.02
 121  0.560  0.333  0.168-   5 1.35 124 1.37  84 1.98
 122  0.060  0.833  0.168-   6 1.35 126 1.37  81 1.98
 123  0.560  0.422  0.877-   7 1.35 120 1.37  84 1.98
 124  0.535  0.325  0.338-   8 1.34 121 1.37  83 2.02
 125  0.440  0.422  0.377-   9 1.35 132 1.37  83 1.98
 126  0.035  0.825  0.337-  10 1.34 122 1.37  82 2.02
 127  0.060  0.922  0.876-  11 1.35 130 1.37  81 1.98
 128  0.440  0.333  0.669-  12 1.35 131 1.37  83 1.98
 129  0.940  0.833  0.668-  13 1.35 119 1.37  82 1.98
 130  0.035  0.931  0.707-  14 1.34 127 1.37  82 2.02
 131  0.465  0.325  0.838-  15 1.34 128 1.37  84 2.02
 132  0.465  0.431  0.209-  16 1.34 125 1.37  84 2.02
 133  0.850  0.026  0.287-  18 1.42  17 1.42  65 1.42
 134  0.849  0.730  0.757-  19 1.42  29 1.42  66 1.42
 135  0.650  0.526  0.788-  20 1.42  23 1.42  67 1.42
 136  0.650  0.230  0.257-  21 1.42  24 1.42  68 1.42
 137  0.150  0.729  0.257-  26 1.42  22 1.42  69 1.42
 138  0.350  0.526  0.288-  32 1.42  25 1.42  70 1.42
 139  0.150  0.026  0.787-  27 1.42  30 1.42  71 1.42
 140  0.350  0.230  0.758-  28 1.42  31 1.42  72 1.42
 141  0.832  0.981  0.947-  17 1.23
 142  0.865  0.072  0.629-  18 1.23
 143  0.865  0.684  0.415-  19 1.23
 144  0.634  0.572  0.130-  20 1.23
 145  0.635  0.184  0.915-  21 1.23
 146  0.168  0.774  0.598-  22 1.23
 147  0.668  0.481  0.447-  23 1.23
 148  0.668  0.274  0.598-  24 1.23
 149  0.332  0.481  0.948-  25 1.23
 150  0.135  0.684  0.915-  26 1.23
 151  0.134  0.072  0.129-  27 1.23
 152  0.365  0.184  0.416-  28 1.23
 153  0.832  0.775  0.098-  29 1.23
 154  0.168  0.981  0.447-  30 1.23
 155  0.332  0.274  0.098-  31 1.23
 156  0.365  0.572  0.630-  32 1.23
 

IMPORTANT INFORMATION: All symmetrisations will be switched off!
NOSYMM: (Re-)initialisation of all symmetry stuff for point group C_1.


----------------------------------------------------------------------------------------

                                     Primitive cell                                     

  volume of cell :    3994.6927

  direct lattice vectors                    reciprocal lattice vectors
    23.995662025 -0.000972433  0.000948979     0.041674199 -0.000004909 -0.000008671
     0.001894826 25.003143618 -5.048842940     0.000001485  0.040870478  0.004335735
     0.001330674 -0.721794211  6.803938183    -0.000004711  0.030327823  0.150191025

  length of vectors
    23.995662064 25.507802912  6.842116884     0.041674201  0.041099813  0.153222456

  position of ions in fractional coordinates (direct lattice)
     0.935199499  0.968949335  0.153749998
     0.895903660  0.955924692  0.430520281
     0.934895744  0.786705328  0.890455025
     0.564621373  0.469059592  0.654716212
     0.603985029  0.299793087  0.114276288
     0.103948537  0.799609226  0.113587681
     0.603930860  0.456001170  0.931355193
     0.564839055  0.286740787  0.391261769
     0.395836717  0.455916600  0.431445150
     0.064695187  0.786608597  0.390492086
     0.103997102  0.955800009  0.930472084
     0.395856474  0.299775862  0.614503161
     0.895725001  0.799863702  0.613746947
     0.064731919  0.968931323  0.653890876
     0.434974078  0.286782234  0.891575498
     0.435168365  0.469083518  0.154966986
     0.821599264  0.020048404  0.099220780
     0.840603234  0.069776317  0.469811160
     0.840071463  0.686176687  0.574369731
     0.659215923  0.569883374  0.970489394
     0.659607427  0.186112616  0.074611367
     0.178336879  0.735647579  0.445211743
     0.678220165  0.520105079  0.599916202
     0.678538658  0.235768087  0.445317399
     0.321465620  0.519955640  0.100230394
     0.159496855  0.685913319  0.074524409
     0.159287563  0.069703329  0.970076815
     0.340281671  0.186110236  0.574961755
     0.821168095  0.735892610  0.945087744
     0.178354250  0.020002763  0.599468383
     0.321333400  0.235724364  0.945713702
     0.340402429  0.569756641  0.470791482
     0.779438886  0.062500465  0.097884382
     0.799659795  0.112351729  0.458576910
     0.799141008  0.643613153  0.585831388
     0.700102272  0.612482078  0.959004288
     0.700574568  0.143547676  0.085818123
     0.220538992  0.693258580  0.446779286
     0.720346022  0.562560247  0.598349041
     0.720764791  0.193371768  0.446565143
     0.279272372  0.562351237  0.098685667
     0.200431570  0.643353845  0.086038553
     0.200231014  0.112286726  0.958919196
     0.299329344  0.143537906  0.586157185
     0.778941887  0.693512148  0.946548928
     0.220494425  0.062469586  0.598177507
     0.279118788  0.193316317  0.946948351
     0.299419659  0.612282513  0.459363852
     0.749404691  0.058332527  0.920152325
     0.790163814  0.157266203  0.630128032
     0.789632468  0.598687951  0.414346412
     0.709565474  0.657439027  0.130411029
     0.710109774  0.098659450  0.914202105
     0.250542755  0.697488456  0.624615933
     0.750368033  0.558357717  0.420514602
     0.750839071  0.197567112  0.624227742
     0.249286469  0.558129969  0.920805897
     0.209995641  0.598432248  0.914570971
     0.209714589  0.157185353  0.130515084
     0.289815116  0.098663586  0.414502196
     0.748865512  0.697743978  0.124296905
     0.250534162  0.058325298  0.420426095
     0.249039978  0.197489251  0.124641399
     0.289864756  0.657210949  0.630808278
     0.890960261  0.986266186  0.291363034
     0.890642415  0.769525316  0.752867299
     0.608863270  0.486361349  0.792245899
     0.609047871  0.269465863  0.253438905
     0.108945104  0.769311949  0.252875850
     0.390887268  0.486308743  0.292463796
     0.108963763  0.986192675  0.791484502
     0.390785165  0.269480978  0.753771646
     0.770016549  0.107455545  0.275229289
     0.769526604  0.648531019  0.769316181
     0.729739719  0.607552843  0.775565113
     0.730199123  0.148428003  0.269203747
     0.230005506  0.648282191  0.269562581
     0.269813278  0.607333795  0.275897910
     0.229890317  0.107408977  0.775566271
     0.269697834  0.148389386  0.769557103
     0.019000906  0.877697236  0.022020473
     0.980834836  0.877799148  0.522182719
     0.480847692  0.377844886  0.523011982
     0.518962795  0.377875211  0.022973353
     0.313360009  0.095783615  0.275466975
     0.742360943  0.523322158  0.286236124
     0.742832509  0.232587536  0.758584315
     0.757424950  0.023326355  0.785759588
     0.756858200  0.732789606  0.258554933
     0.685986480  0.660399005  0.269431096
     0.186482634  0.595489564  0.775459977
     0.186113229  0.160106329  0.269460647
     0.813162027  0.595766128  0.275243407
     0.257041010  0.232489560  0.259050557
     0.257346081  0.523101566  0.786524350
     0.242484735  0.732521409  0.758869050
     0.313413333  0.660187300  0.769866032
     0.686572917  0.095756605  0.775174329
     0.813760913  0.160203771  0.769050995
     0.242529173  0.023327979  0.286009053
     0.628595012  0.457421004  0.065939970
     0.371264626  0.298342069  0.479744391
     0.446518593  0.481547720  0.021977001
     0.053371979  0.774212536  0.523659797
     0.128645659  0.957186471  0.065063726
     0.446225733  0.274394969  0.024810027
     0.946545157  0.981362684  0.020643051
     0.871097530  0.798522257  0.479155498
     0.053402330  0.981391774  0.520890704
     0.553266546  0.481483318  0.521659276
     0.628595627  0.298392569  0.979547206
     0.871244635  0.957356505  0.565173550
     0.553576634  0.274321611  0.524432323
     0.371153670  0.457283404  0.565979657
     0.128591213  0.798177985  0.978899642
     0.946155091  0.774253154  0.023542331
     0.964723012  0.930635908  0.207393311
     0.940319602  0.922319597  0.376523949
     0.964550733  0.824946576  0.836839577
     0.535114742  0.430733933  0.708346547
     0.559542544  0.333352195  0.168455099
     0.059506276  0.833178062  0.167549981
     0.559525454  0.422392359  0.877383301
     0.535229562  0.325017241  0.337708248
     0.440289622  0.422363885  0.377458303
     0.035128548  0.824879187  0.336750729
     0.059576684  0.922214942  0.876395162
     0.440284681  0.333341433  0.668602811
     0.940221569  0.833343972  0.667767926
     0.035194029  0.930600407  0.707387770
     0.464580496  0.325045743  0.837902938
     0.464713731  0.430767784  0.208512757
     0.849921468  0.026270652  0.287151332
     0.849490175  0.729627488  0.757076681
     0.649893436  0.526360957  0.787910138
     0.650176697  0.229525916  0.257449514
     0.150039287  0.729368396  0.257203258
     0.349782577  0.526247894  0.288199616
     0.150007470  0.026202553  0.787380870
     0.349678135  0.229524594  0.757804907
     0.831869090  0.981291614  0.946572970
     0.865374758  0.071602063  0.628902518
     0.864789769  0.684371672  0.415138821
     0.634493785  0.571703228  0.129721564
     0.634886644  0.184343519  0.915468123
     0.167987692  0.774404251  0.597771074
     0.667977833  0.481311266  0.447372654
     0.668216584  0.274494419  0.598026673
     0.331797519  0.481195446  0.947646143
     0.134828394  0.684117786  0.915255830
     0.134487548  0.071515795  0.129149188
     0.365022268  0.184346349  0.415823078
     0.831524099  0.774619893  0.097727014
     0.168118337  0.981251613  0.446768132
     0.331657681  0.274422019  0.098478924
     0.365165864  0.571631880  0.629953502

  ion indices of the primitive-cell ions
   primitive index   ion index
                 1           1
                 2           2
                 3           3
                 4           4
                 5           5
                 6           6
                 7           7
                 8           8
                 9           9
                10          10
                11          11
                12          12
                13          13
                14          14
                15          15
                16          16
                17          17
                18          18
                19          19
                20          20
                21          21
                22          22
                23          23
                24          24
                25          25
                26          26
                27          27
                28          28
                29          29
                30          30
                31          31
                32          32
                33          33
                34          34
                35          35
                36          36
                37          37
                38          38
                39          39
                40          40
                41          41
                42          42
                43          43
                44          44
                45          45
                46          46
                47          47
                48          48
                49          49
                50          50
                51          51
                52          52
                53          53
                54          54
                55          55
                56          56
                57          57
                58          58
                59          59
                60          60
                61          61
                62          62
                63          63
                64          64
                65          65
                66          66
                67          67
                68          68
                69          69
                70          70
                71          71
                72          72
                73          73
                74          74
                75          75
                76          76
                77          77
                78          78
                79          79
                80          80
                81          81
                82          82
                83          83
                84          84
                85          85
                86          86
                87          87
                88          88
                89          89
                90          90
                91          91
                92          92
                93          93
                94          94
                95          95
                96          96
                97          97
                98          98
                99          99
               100         100
               101         101
               102         102
               103         103
               104         104
               105         105
               106         106
               107         107
               108         108
               109         109
               110         110
               111         111
               112         112
               113         113
               114         114
               115         115
               116         116
               117         117
               118         118
               119         119
               120         120
               121         121
               122         122
               123         123
               124         124
               125         125
               126         126
               127         127
               128         128
               129         129
               130         130
               131         131
               132         132
               133         133
               134         134
               135         135
               136         136
               137         137
               138         138
               139         139
               140         140
               141         141
               142         142
               143         143
               144         144
               145         145
               146         146
               147         147
               148         148
               149         149
               150         150
               151         151
               152         152
               153         153
               154         154
               155         155
               156         156

----------------------------------------------------------------------------------------

 
 

Automatic generation of k-mesh.
 generate k-points for:    1    1    4
Space group operators:
 irot       det(A)        alpha          n_x          n_y          n_z        tau_x        tau_y        tau_z
    1     1.000000     0.000000     1.000000     0.000000     0.000000     0.000000     0.000000     0.000000
 
 Subroutine IBZKPT returns following result:
 ===========================================
 
 Found      3 irreducible k-points:
 
 Following reciprocal coordinates:
            Coordinates               Weight
  0.000000  0.000000  0.000000      1.000000
 -0.000000 -0.000000  0.250000      2.000000
 -0.000000 -0.000000  0.500000      1.000000
 
 Following cartesian coordinates:
            Coordinates               Weight
  0.000000  0.000000  0.000000      1.000000
 -0.000001  0.007582  0.037548      2.000000
 -0.000002  0.015164  0.075096      1.000000
 


--------------------------------------------------------------------------------------------------------




 Dimension of arrays:
   k-points           NKPTS =      3   k-points in BZ     NKDIM =      3   number of bands    NBANDS=    400
   number of dos      NEDOS =    301   number of ions     NIONS =    156
   non local maximal  LDIM  =      6   non local SUM 2l+1 LMDIM =     18
   total plane-waves  NPLWV = 967680
   max r-space proj   IRMAX =   2314   max aug-charges    IRDMAX=   7419
   dimension x,y,z NGX =   144 NGY =  160 NGZ =   42
   dimension x,y,z NGXF=   288 NGYF=  320 NGZF=   84
   support grid    NGXF=   288 NGYF=  320 NGZF=   84
   ions per type =              80   4  32  24  16
   NGX,Y,Z   is equivalent  to a cutoff of   9.98, 10.43, 10.20 a.u.
   NGXF,Y,Z  is equivalent  to a cutoff of  19.95, 20.86, 20.41 a.u.

 SYSTEM =  flex_MOF                                
 POSCAR =  Zn_H                                    

 Startparameter for this run:
   NWRITE =      2    write-flag & timer
   PREC   = normal    normal or accurate (medium, high low for compatibility)
   ISTART =      0    job   : 0-new  1-cont  2-samecut
   ICHARG =      2    charge: 1-file 2-atom 10-const
   ISPIN  =      1    spin polarized calculation?
   LNONCOLLINEAR =      F non collinear calculations
   LSORBIT =      F    spin-orbit coupling
   INIWAV =      1    electr: 0-lowe 1-rand  2-diag
   LASPH  =      F    aspherical Exc in radial PAW
   METAGGA=      F    non-selfconsistent MetaGGA calc.

 Electronic Relaxation 1
   ENCUT  =  600.0 eV  44.10 Ry    6.64 a.u.  47.93 50.95 13.67*2*pi/ulx,y,z
   ENINI  =  600.0     initial cutoff
   ENAUG  =  644.9 eV  augmentation charge cutoff
   NELM   =     80;   NELMIN=  4; NELMDL=-12     # of ELM steps 
   EDIFF  = 0.1E-05   stopping-criterion for ELM
   LREAL  =      T    real-space projection
   NLSPLINE    = F    spline interpolate recip. space projectors
   LCOMPAT=      F    compatible to vasp.4.4
   GGA_COMPAT  = T    GGA compatible to vasp.4.4-vasp.4.6
   LMAXPAW     = -100 max onsite density
   LMAXMIX     =    2 max onsite mixed and CHGCAR
   VOSKOWN=      0    Vosko Wilk Nusair interpolation
   ROPT   =   -0.00050  -0.00050  -0.00050  -0.00050
   ROPT   =   -0.00050
 Ionic relaxation
   EDIFFG = -.1E-01   stopping-criterion for IOM
   NSW    =   1000    number of steps for IOM
   NBLOCK =      1;   KBLOCK =   1000    inner block; outer block 
   IBRION =      1    ionic relax: 0-MD 1-quasi-New 2-CG
   NFREE  =      0    steps in history (QN), initial steepest desc. (CG)
   ISIF   =      4    stress and relaxation
   IWAVPR =     11    prediction:  0-non 1-charg 2-wave 3-comb
   ISYM   =      0    0-nonsym 1-usesym 2-fastsym
   LCORR  =      T    Harris-Foulkes like correction to forces

   POTIM  = 0.5000    time-step for ionic-motion
   TEIN   =    0.0    initial temperature
   TEBEG  =    0.0;   TEEND  =   0.0 temperature during run
   SMASS  =  -3.00    Nose mass-parameter (am)
   estimated Nose-frequenzy (Omega)   =  0.10E-29 period in steps = 0.13E+47 mass=  -0.132E-25a.u.
   SCALEE = 1.0000    scale energy and forces
   NPACO  =    256;   APACO  = 16.0  distance and # of slots for P.C.
   PSTRESS=    0.0 pullay stress

  Mass of Ions in am
   POMASS =  12.01 65.39  1.00 14.00 16.00
  Ionic Valenz
   ZVAL   =   4.00 12.00  1.00  5.00  6.00
  Atomic Wigner-Seitz radii
   RWIGS  =  -1.00 -1.00 -1.00 -1.00 -1.00
  virtual crystal weights 
   VCA    =   1.00  1.00  1.00  1.00  1.00
   NELECT =     616.0000    total number of electrons
   NUPDOWN=      -1.0000    fix difference up-down

 DOS related values:
   EMIN   =  10.00;   EMAX   =-10.00  energy-range for DOS
   EFERMI =   0.00
   ISMEAR =     0;   SIGMA  =   0.05  broadening in eV -4-tet -1-fermi 0-gaus

 Electronic relaxation 2 (details)
   IALGO  =     48    algorithm
   LDIAG  =      T    sub-space diagonalisation (order eigenvalues)
   LSUBROT=      F    optimize rotation matrix (better conditioning)
   TURBO    =      0    0=normal 1=particle mesh
   IRESTART =      0    0=no restart 2=restart with 2 vectors
   NREBOOT  =      0    no. of reboots
   NMIN     =      0    reboot dimension
   EREF     =   0.00    reference energy to select bands
   IMIX   =      4    mixing-type and parameters
     AMIX     =   0.40;   BMIX     =  1.00
     AMIX_MAG =   1.60;   BMIX_MAG =  1.00
     AMIN     =   0.10
     WC   =   100.;   INIMIX=   1;  MIXPRE=   1;  MAXMIX= -45

 Intra band minimization:
   WEIMIN = 0.0010     energy-eigenvalue tresh-hold
   EBREAK =  0.63E-09  absolut break condition
   DEPER  =   0.30     relativ break condition  

   TIME   =   0.40     timestep for ELM

  volume/ion in A,a.u.               =      25.61       172.80
  Fermi-wavevector in a.u.,A,eV,Ry     =   0.877891  1.658973 10.485910  0.770693
  Thomas-Fermi vector in A             =   1.997902
 
 Write flags
   LWAVE        =      T    write WAVECAR
   LDOWNSAMPLE  =      F    k-point downsampling of WAVECAR
   LCHARG       =      T    write CHGCAR
   LVTOT        =      F    write LOCPOT, total local potential
   LVHAR        =      F    write LOCPOT, Hartree potential only
   LELF         =      F    write electronic localiz. function (ELF)
   LORBIT       =      0    0 simple, 1 ext, 2 COOP (PROOUT), +10 PAW based schemes


 Dipole corrections
   LMONO  =      F    monopole corrections only (constant potential shift)
   LDIPOL =      F    correct potential (dipole corrections)
   IDIPOL =      0    1-x, 2-y, 3-z, 4-all directions 
   EPSILON=  1.0000000 bulk dielectric constant

 Exchange correlation treatment:
   GGA     =    PE    GGA type
   LEXCH   =     8    internal setting for exchange type
   VOSKOWN=      0    Vosko Wilk Nusair interpolation
   LHFCALC =     F    Hartree Fock is set to
   LHFONE  =     F    Hartree Fock one center treatment
   AEXX    =    0.0000 exact exchange contribution

 Linear response parameters
   LEPSILON=     F    determine dielectric tensor
   LRPA    =     F    only Hartree local field effects (RPA)
   LNABLA  =     F    use nabla operator in PAW spheres
   LVEL    =     F    velocity operator in full k-point grid
   LINTERFAST=   F  fast interpolation
   KINTER  =     0    interpolate to denser k-point grid
   CSHIFT  =0.1000    complex shift for real part using Kramers Kronig
   OMEGAMAX=  -1.0    maximum frequency
   DEG_THRESHOLD= 0.2000000E-02 threshold for treating states as degnerate
   RTIME   =   -0.100 relaxation time in fs
  (WPLASMAI=    0.000 imaginary part of plasma frequency in eV, 0.658/RTIME)
   DFIELD  = 0.0000000 0.0000000 0.0000000 field for delta impulse in time
 
 Orbital magnetization related:
   ORBITALMAG=     F  switch on orbital magnetization
   LCHIMAG   =     F  perturbation theory with respect to B field
   DQ        =  0.001000  dq finite difference perturbation B field
   LLRAUG    =     F  two centre corrections for induced B field



--------------------------------------------------------------------------------------------------------


 quasi-Newton-method for relaxation of ions
 charge density and potential will be updated during run
 non-spin polarized calculation
 RMM-DIIS sequential band-by-band
 perform sub-space diagonalisation
    before iterative eigenvector-optimisation
 modified Broyden-mixing scheme, WC =      100.0
 initial mixing is a Kerker type mixing with AMIX =  0.4000 and BMIX =      1.0000
 Hartree-type preconditioning will be used
 using additional bands           92
 real space projection scheme for non local part
 use partial core corrections
 calculate Harris-corrections to forces 
   (improved forces if not selfconsistent)
 use gradient corrections 
 use of overlap-Matrix (Vanderbilt PP)
 Gauss-broadening in eV      SIGMA  =   0.05


--------------------------------------------------------------------------------------------------------


  energy-cutoff  :      600.00
  volume of cell :     3994.69
      direct lattice vectors                 reciprocal lattice vectors
    23.995662025 -0.000972433  0.000948979     0.041674199 -0.000004909 -0.000008671
     0.001894826 25.003143618 -5.048842940     0.000001485  0.040870478  0.004335735
     0.001330674 -0.721794211  6.803938183    -0.000004711  0.030327823  0.150191025

  length of vectors
    23.995662064 25.507802912  6.842116884     0.041674201  0.041099813  0.153222456


 
 k-points in units of 2pi/SCALE and weight: read from INCAR                         
   0.00000000  0.00000000  0.00000000       0.250
  -0.00000118  0.00758196  0.03754776       0.500
  -0.00000236  0.01516391  0.07509551       0.250
 
 k-points in reciprocal lattice and weights: read from INCAR                         
   0.00000000  0.00000000  0.00000000       0.250
  -0.00000000 -0.00000000  0.25000000       0.500
  -0.00000000 -0.00000000  0.50000000       0.250
 
 position of ions in fractional coordinates (direct lattice) 
   0.93519950  0.96894933  0.15375000
   0.89590366  0.95592469  0.43052028
   0.93489574  0.78670533  0.89045503
   0.56462137  0.46905959  0.65471621
   0.60398503  0.29979309  0.11427629
   0.10394854  0.79960923  0.11358768
   0.60393086  0.45600117  0.93135519
   0.56483906  0.28674079  0.39126177
   0.39583672  0.45591660  0.43144515
   0.06469519  0.78660860  0.39049209
   0.10399710  0.95580001  0.93047208
   0.39585647  0.29977586  0.61450316
   0.89572500  0.79986370  0.61374695
   0.06473192  0.96893132  0.65389088
   0.43497408  0.28678223  0.89157550
   0.43516837  0.46908352  0.15496699
   0.82159926  0.02004840  0.09922078
   0.84060323  0.06977632  0.46981116
   0.84007146  0.68617669  0.57436973
   0.65921592  0.56988337  0.97048939
   0.65960743  0.18611262  0.07461137
   0.17833688  0.73564758  0.44521174
   0.67822017  0.52010508  0.59991620
   0.67853866  0.23576809  0.44531740
   0.32146562  0.51995564  0.10023039
   0.15949686  0.68591332  0.07452441
   0.15928756  0.06970333  0.97007681
   0.34028167  0.18611024  0.57496176
   0.82116809  0.73589261  0.94508774
   0.17835425  0.02000276  0.59946838
   0.32133340  0.23572436  0.94571370
   0.34040243  0.56975664  0.47079148
   0.77943889  0.06250047  0.09788438
   0.79965980  0.11235173  0.45857691
   0.79914101  0.64361315  0.58583139
   0.70010227  0.61248208  0.95900429
   0.70057457  0.14354768  0.08581812
   0.22053899  0.69325858  0.44677929
   0.72034602  0.56256025  0.59834904
   0.72076479  0.19337177  0.44656514
   0.27927237  0.56235124  0.09868567
   0.20043157  0.64335384  0.08603855
   0.20023101  0.11228673  0.95891920
   0.29932934  0.14353791  0.58615719
   0.77894189  0.69351215  0.94654893
   0.22049443  0.06246959  0.59817751
   0.27911879  0.19331632  0.94694835
   0.29941966  0.61228251  0.45936385
   0.74940469  0.05833253  0.92015232
   0.79016381  0.15726620  0.63012803
   0.78963247  0.59868795  0.41434641
   0.70956547  0.65743903  0.13041103
   0.71010977  0.09865945  0.91420210
   0.25054275  0.69748846  0.62461593
   0.75036803  0.55835772  0.42051460
   0.75083907  0.19756711  0.62422774
   0.24928647  0.55812997  0.92080590
   0.20999564  0.59843225  0.91457097
   0.20971459  0.15718535  0.13051508
   0.28981512  0.09866359  0.41450220
   0.74886551  0.69774398  0.12429690
   0.25053416  0.05832530  0.42042609
   0.24903998  0.19748925  0.12464140
   0.28986476  0.65721095  0.63080828
   0.89096026  0.98626619  0.29136303
   0.89064241  0.76952532  0.75286730
   0.60886327  0.48636135  0.79224590
   0.60904787  0.26946586  0.25343890
   0.10894510  0.76931195  0.25287585
   0.39088727  0.48630874  0.29246380
   0.10896376  0.98619268  0.79148450
   0.39078517  0.26948098  0.75377165
   0.77001655  0.10745554  0.27522929
   0.76952660  0.64853102  0.76931618
   0.72973972  0.60755284  0.77556511
   0.73019912  0.14842800  0.26920375
   0.23000551  0.64828219  0.26956258
   0.26981328  0.60733380  0.27589791
   0.22989032  0.10740898  0.77556627
   0.26969783  0.14838939  0.76955710
   0.01900091  0.87769724  0.02202047
   0.98083484  0.87779915  0.52218272
   0.48084769  0.37784489  0.52301198
   0.51896279  0.37787521  0.02297335
   0.31336001  0.09578362  0.27546698
   0.74236094  0.52332216  0.28623612
   0.74283251  0.23258754  0.75858431
   0.75742495  0.02332636  0.78575959
   0.75685820  0.73278961  0.25855493
   0.68598648  0.66039901  0.26943110
   0.18648263  0.59548956  0.77545998
   0.18611323  0.16010633  0.26946065
   0.81316203  0.59576613  0.27524341
   0.25704101  0.23248956  0.25905056
   0.25734608  0.52310157  0.78652435
   0.24248473  0.73252141  0.75886905
   0.31341333  0.66018730  0.76986603
   0.68657292  0.09575660  0.77517433
   0.81376091  0.16020377  0.76905100
   0.24252917  0.02332798  0.28600905
   0.62859501  0.45742100  0.06593997
   0.37126463  0.29834207  0.47974439
   0.44651859  0.48154772  0.02197700
   0.05337198  0.77421254  0.52365980
   0.12864566  0.95718647  0.06506373
   0.44622573  0.27439497  0.02481003
   0.94654516  0.98136268  0.02064305
   0.87109753  0.79852226  0.47915550
   0.05340233  0.98139177  0.52089070
   0.55326655  0.48148332  0.52165928
   0.62859563  0.29839257  0.97954721
   0.87124463  0.95735650  0.56517355
   0.55357663  0.27432161  0.52443232
   0.37115367  0.45728340  0.56597966
   0.12859121  0.79817799  0.97889964
   0.94615509  0.77425315  0.02354233
   0.96472301  0.93063591  0.20739331
   0.94031960  0.92231960  0.37652395
   0.96455073  0.82494658  0.83683958
   0.53511474  0.43073393  0.70834655
   0.55954254  0.33335219  0.16845510
   0.05950628  0.83317806  0.16754998
   0.55952545  0.42239236  0.87738330
   0.53522956  0.32501724  0.33770825
   0.44028962  0.42236388  0.37745830
   0.03512855  0.82487919  0.33675073
   0.05957668  0.92221494  0.87639516
   0.44028468  0.33334143  0.66860281
   0.94022157  0.83334397  0.66776793
   0.03519403  0.93060041  0.70738777
   0.46458050  0.32504574  0.83790294
   0.46471373  0.43076778  0.20851276
   0.84992147  0.02627065  0.28715133
   0.84949018  0.72962749  0.75707668
   0.64989344  0.52636096  0.78791014
   0.65017670  0.22952592  0.25744951
   0.15003929  0.72936840  0.25720326
   0.34978258  0.52624789  0.28819962
   0.15000747  0.02620255  0.78738087
   0.34967813  0.22952459  0.75780491
   0.83186909  0.98129161  0.94657297
   0.86537476  0.07160206  0.62890252
   0.86478977  0.68437167  0.41513882
   0.63449379  0.57170323  0.12972156
   0.63488664  0.18434352  0.91546812
   0.16798769  0.77440425  0.59777107
   0.66797783  0.48131127  0.44737265
   0.66821658  0.27449442  0.59802667
   0.33179752  0.48119545  0.94764614
   0.13482839  0.68411779  0.91525583
   0.13448755  0.07151579  0.12914919
   0.36502227  0.18434635  0.41582308
   0.83152410  0.77461989  0.09772701
   0.16811834  0.98125161  0.44676813
   0.33165768  0.27442202  0.09847892
   0.36516586  0.57163188  0.62995350
 
 position of ions in cartesian coordinates  (Angst):
  22.44277169 24.11489410 -3.84508004
  21.50018562 23.58950411 -1.89623006
  22.43611789 19.02647190  2.08753650
  13.55022364 11.25484493  2.08697624
  14.49374075  7.41269830 -0.73550624
   2.49598024 19.91065631 -3.26415919
  14.49382419 10.72862868  4.03517799
  13.55475104  6.88646134  1.21494771
   9.49980207 11.08754870  0.63405046
   1.55441394 19.38576987 -1.31451785
   2.49852854 23.22629439  1.50528911
   9.50022389  7.05140916  2.66789594
  21.49584669 19.55523699  0.13836011
   1.55599133 23.75429143 -0.44288754
  10.43922075  6.52650036  4.61871890
  10.44324805 11.61628512 -1.31353025
  19.71498827  0.42885719  0.57465049
  20.17158848  1.40470286  2.84507414
  20.16013539 16.74118059  0.44437503
  15.82069371 13.54774118  3.72652378
  15.82816881  4.59890499 -0.43137629
   4.28129784 18.07197738 -0.68480667
  16.27612566 12.57058642  1.45650751
  16.28302361  5.57285598  1.84019993
   7.71489896 12.92786723 -1.94290789
   3.82863148 17.09604283 -2.95585779
   3.82363345  1.04245161  6.24857268
   8.16640170  4.23800600  2.97268581
  19.70712406 17.71667122  2.71569165
   4.28056390  0.06726571  3.97792427
   7.71231275  5.21092698  5.24474721
   8.16988771 13.90556154  0.32694738
  18.70340075  1.49129778  0.35118392
  19.18918929  2.47737065  2.55364158
  19.17791662 15.66872530  0.73721719
  16.80185418 14.62109282  3.43334446
  16.81113676  3.52651888 -0.14018364
   5.29388723 17.01094668 -0.46008576
  17.28704185 13.63318928  1.23153515
  17.29618895  4.51187304  2.06278194
   6.70252232 13.98904643 -2.16750687
   4.81082174 16.02357154 -2.66260132
   4.80616452  2.11518411  5.95769890
   7.18365773  3.16552294  3.26376097
  18.69379990 16.65601282  2.93956568
   5.29182405  1.12996056  3.75477289
   6.69926649  4.14974239  5.46721920
   7.18654438 14.97713027  0.03444915
  17.98379664  0.79360719  5.96685894
  18.96164031  3.47655830  3.49408967
  18.94943959 14.66924010 -0.20274471
  17.02791257 16.34322249 -2.43132445
  17.04095758  1.80624007  5.72273242
   6.01409205 16.98831624  0.72857629
  18.00719528 13.65644351  0.04280702
  18.01808558  4.48850477  3.25043418
   5.98407672 13.29012900  3.44743241
   5.04133535 14.30235121  3.20149320
   5.03271192  3.83571899  0.09461142
   6.95504409  2.16743269  2.32238540
  17.97101123 17.35534789 -2.67638064
   6.01240303  1.15461105  2.56631564
   5.97641922  4.84764450 -0.14880351
   6.95758141 15.97674410  0.97410075
  21.38143782 24.44858455 -2.99624150
  21.37401430 18.69627065  1.23809530
  14.61205304 11.58813208  2.93540786
  14.61535471  6.55397067  0.36446980
   2.61600410 19.05258688 -2.16348016
   9.38090941 11.94776855 -0.46501993
   2.61757951 24.08652220  0.40618310
   9.37866239  6.19342356  3.76841940
  18.47762671  2.48731872  1.33084763
  18.46755287 15.65927794  1.96077874
  17.51277090 14.63022297  2.21015071
  17.52225085  3.51614690  1.08294892
   5.52072146 16.01430036 -1.43876955
   6.47586616 14.98585022 -1.18888458
   5.51760591  2.12553929  4.73483207
   6.47288328  3.15447701  4.48708019
   0.45763170 21.92927733 -4.28151153
  23.53813937 21.56987591 -0.87804030
  11.53967061  9.06933532  1.65131803
  12.45360240  9.43098147 -1.75103083
   7.51982892  2.19575630  1.39096121
  17.81481478 12.87737361 -0.69393401
  17.82620797  5.26715544  3.98776778
  18.17600291  0.01533895  5.22920734
  18.16304614 18.13468430 -1.93982960
  16.46230960 16.31691030 -1.50040735
   4.47693449 14.32920723  2.26982543
   4.46657208  3.80848541  1.02521849
  19.51385631 14.69656623 -1.13441881
   6.16865443  5.62573870  0.58900463
   6.17722737 12.51122460  2.71064962
   5.82097955 17.76735491  1.46514267
   7.52283578 15.95076827  1.90523632
  16.47598463  1.83403215  4.79142970
  19.52805875  3.44971002  4.42450399
   5.82007286  0.37659728  1.82843877
  15.08450794 11.38875670 -1.86019880
   8.90994418  7.11285184  1.75822125
  10.71545095 12.02390973 -2.28130492
   1.28285979 18.97972072 -0.34587796
   3.08883804 23.88558309 -4.38987251
  10.70803482  6.84239517 -1.21614776
  22.71486465 24.52133163 -4.81339376
  20.90471257 19.61886794 -0.77064242
   1.28397695 24.16185164 -1.41073410
  13.27760352 11.66152788  1.11892886
  15.08543707  6.75310950  5.15883794
  20.90865789 23.52813596 -0.98730994
  13.28465545  6.47983212  2.18372371
   8.90769763 11.02464087  1.54249073
   3.08844629 19.25026966  2.63061940
  22.70511620 19.34085001 -3.74800412
  23.15120672 23.11818984 -3.28662777
  22.56584004 22.78820213 -2.09390876
  23.14771008 20.02129378  1.52969440
  12.84219123 10.25790160  2.64534595
  13.42744958  8.21271877 -0.53635380
   1.42969417 20.71107627 -3.06652899
  13.42815155  9.92730254  3.83760004
  12.84425291  7.88217643  0.65729296
  10.56634354 10.28754950  0.43617187
   0.84494388 20.38147390 -1.87342098
   1.43249560 22.42563774  1.30687665
  10.56644371  7.85156194  2.86656148
  22.56370663 20.35331370  0.33692111
   0.84720866 22.75731302  0.11460076
  11.14964744  7.52192013  4.06037576
  11.15220731 10.61959355 -0.75572997
  20.39486018  0.44875822  1.82193007
  20.38646907 17.69570124  1.46813450
  15.59666905 12.59133764  2.70399481
  15.60219777  5.55241161  0.59344728
   3.60201630 18.05070903 -1.93232902
   8.39464515 12.94949072 -0.69571866
   3.60062596  0.08667337  5.22514055
   8.39220165  5.19151716  3.99755595
  19.96436849 23.85133532  1.48682616
  20.76621276  1.33549695  3.91832751
  20.75305221 16.81095746 -0.62988555
  15.22635432 14.20012865 -2.00322018
  15.23609281  3.94777051  5.29866954
   4.03323867 18.93090965  0.15751142
  16.03007764 11.71073416  0.61446479
  16.03561522  6.43092140  2.68369143
   7.96387391 11.34707069  4.01856042
   3.23781078 16.44433778  2.77346878
   3.22742512  1.69476977  0.51777870
   8.75985360  4.30874460  1.89884515
  19.95456906 19.29658503 -3.24521651
   4.03656460 24.21173687 -1.91424299
   7.95899664  6.79000913 -0.71515443
   8.76431805 13.83754209  1.40043164
 


--------------------------------------------------------------------------------------------------------


 k-point  1 :   0.0000 0.0000 0.0000  plane waves:  133373
 k-point  2 :  -0.0000-0.0000 0.2500  plane waves:  133263
 k-point  3 :  -0.0000-0.0000 0.5000  plane waves:  133242

 maximum and minimum number of plane-waves per node :     33399    33269

 maximum number of plane-waves:    133373
 maximum index in each direction: 
   IXMAX=   47   IYMAX=   50   IZMAX=   13
   IXMIN=  -47   IYMIN=  -50   IZMIN=  -14


 real space projection operators:
  total allocation   :      12313.81 KBytes
  max/ min on nodes  :       3091.62       3064.81


 parallel 3D FFT for wavefunctions:
    minimum data exchange during FFTs selected (reduces bandwidth)
 parallel 3D FFT for charge:
    minimum data exchange during FFTs selected (reduces bandwidth)


 total amount of memory used by VASP MPI-rank0   109949. kBytes
=======================================================================

   base      :      30000. kBytes
   nonlr-proj:       6277. kBytes
   fftplans  :      11983. kBytes
   grid      :      20725. kBytes
   one-center:        606. kBytes
   wavefun   :      40358. kBytes
 
     INWAV:  cpu time    0.0002: real time    0.0002
 Broyden mixing: mesh for mixing (old mesh)
   NGX = 95   NGY =101   NGZ = 27
  (NGX  =288   NGY  =320   NGZ  = 84)
  gives a total of 259065 points

 initial charge density was supplied:
 charge density of overlapping atoms calculated
 number of electron     616.0000000 magnetization 
 keeping initial charge density in first step


--------------------------------------------------------------------------------------------------------


 Maximum index for non-local projection operator          562
 Maximum index for augmentation-charges          352 (set IRDMAX)


--------------------------------------------------------------------------------------------------------


 First call to EWALD:  gamma=   0.112
 Maximum number of real-space cells 2x 2x 6
 Maximum number of reciprocal cells 4x 4x 1

    FEWALD:  cpu time    0.0158: real time    0.0158


--------------------------------------- Iteration      1(   1)  ---------------------------------------


    POTLOK:  cpu time    0.1777: real time    0.2086
    SETDIJ:  cpu time    0.0401: real time    0.0406
    EDDIAG:  cpu time    2.8371: real time    2.8635
  RMM-DIIS:  cpu time    3.6728: real time    3.6819
    ORTHCH:  cpu time    0.6466: real time    0.6466
       DOS:  cpu time    0.0036: real time    0.0040
    --------------------------------------------
      LOOP:  cpu time    7.3779: real time    7.4454

 eigenvalue-minimisations  :  1200
 total energy-change (2. order) : 0.8410756E+04  (-0.2174516E+05)
 number of electron     616.0000000 magnetization 
 augmentation part      616.0000000 magnetization 

 Free energy of the ion-electron system (eV)
  ---------------------------------------------------
  alpha Z        PSCENC =       483.61783129
  Ewald energy   TEWEN  =     43865.08246963
  -Hartree energ DENC   =    -70794.28634133
  -exchange      EXHF   =         0.00000000
  -V(xc)+E(xc)   XCENC  =      2271.04415447
  PAW double counting   =     25034.14638475   -25847.60581054
  entropy T*S    EENTRO =        -0.07664057
  eigenvalues    EBANDS =       965.15428735
  atomic energy  EATOM  =     32433.67991533
  Solvation  Ediel_sol  =         0.00000000
  ---------------------------------------------------
  free energy    TOTEN  =      8410.75625037 eV

  energy without entropy =     8410.83289094  energy(sigma->0) =     8410.79457066


--------------------------------------------------------------------------------------------------------




--------------------------------------- Iteration      1(   2)  ---------------------------------------


    EDDIAG:  cpu time    2.7617: real time    2.7624
  RMM-DIIS:  cpu time    3.6158: real time    3.6172
    ORTHCH:  cpu time    0.6449: real time    0.6452
       DOS:  cpu time    0.0019: real time    0.0019
    --------------------------------------------
      LOOP:  cpu time    7.0242: real time    7.0266

 eigenvalue-minimisations  :  1200
 total energy-change (2. order) :-0.5198063E+04  (-0.6706925E+04)
 number of electron     616.0000000 magnetization 
 augmentation part      616.0000000 magnetization 

 Free energy of the ion-electron system (eV)
  ---------------------------------------------------
  alpha Z        PSCENC =       483.61783129
  Ewald energy   TEWEN  =     43865.08246963
  -Hartree energ DENC   =    -70794.28634133
  -exchange      EXHF   =         0.00000000
  -V(xc)+E(xc)   XCENC  =      2271.04415447
  PAW double counting   =     25034.14638475   -25847.60581054
  entropy T*S    EENTRO =        -0.05538873
  eigenvalues    EBANDS =     -4232.92995778
  atomic energy  EATOM  =     32433.67991533
  Solvation  Ediel_sol  =         0.00000000
  ---------------------------------------------------
  free energy    TOTEN  =      3212.69325708 eV

  energy without entropy =     3212.74864581  energy(sigma->0) =     3212.72095144


--------------------------------------------------------------------------------------------------------




--------------------------------------- Iteration      1(   3)  ---------------------------------------


    EDDIAG:  cpu time    2.7463: real time    2.7582
  RMM-DIIS:  cpu time    3.6122: real time    3.6139
    ORTHCH:  cpu time    0.6454: real time    0.6455
       DOS:  cpu time    0.0026: real time    0.0025
    --------------------------------------------
      LOOP:  cpu time    7.0064: real time    7.0201

 eigenvalue-minimisations  :  1200
 total energy-change (2. order) :-0.2079833E+04  (-0.2953936E+04)
 number of electron     616.0000000 magnetization 
 augmentation part      616.0000000 magnetization 

 Free energy of the ion-electron system (eV)
  ---------------------------------------------------
  alpha Z        PSCENC =       483.61783129
  Ewald energy   TEWEN  =     43865.08246963
  -Hartree energ DENC   =    -70794.28634133
  -exchange      EXHF   =         0.00000000
  -V(xc)+E(xc)   XCENC  =      2271.04415447
  PAW double counting   =     25034.14638475   -25847.60581054
  entropy T*S    EENTRO =        -0.07249609
  eigenvalues    EBANDS =     -6312.74569198
  atomic energy  EATOM  =     32433.67991533
  Solvation  Ediel_sol  =         0.00000000
  ---------------------------------------------------
  free energy    TOTEN  =      1132.86041553 eV

  energy without entropy =     1132.93291161  energy(sigma->0) =     1132.89666357


--------------------------------------------------------------------------------------------------------




--------------------------------------- Iteration      1(   4)  ---------------------------------------


    EDDIAG:  cpu time    2.7507: real time    2.7514
  RMM-DIIS:  cpu time    3.6212: real time    3.6224
    ORTHCH:  cpu time    0.6464: real time    0.6464
       DOS:  cpu time    0.0022: real time    0.0022
    --------------------------------------------
      LOOP:  cpu time    7.0205: real time    7.0225

 eigenvalue-minimisations  :  1200
 total energy-change (2. order) :-0.1441655E+04  (-0.1453609E+04)
 number of electron     616.0000000 magnetization 
 augmentation part      616.0000000 magnetization 

 Free energy of the ion-electron system (eV)
  ---------------------------------------------------
  alpha Z        PSCENC =       483.61783129
  Ewald energy   TEWEN  =     43865.08246963
  -Hartree energ DENC   =    -70794.28634133
  -exchange      EXHF   =         0.00000000
  -V(xc)+E(xc)   XCENC  =      2271.04415447
  PAW double counting   =     25034.14638475   -25847.60581054
  entropy T*S    EENTRO =        -0.04303053
  eigenvalues    EBANDS =     -7754.43043863
  atomic energy  EATOM  =     32433.67991533
  Solvation  Ediel_sol  =         0.00000000
  ---------------------------------------------------
  free energy    TOTEN  =      -308.79486557 eV

  energy without entropy =     -308.75183504  energy(sigma->0) =     -308.77335031


--------------------------------------------------------------------------------------------------------




--------------------------------------- Iteration      1(   5)  ---------------------------------------


    EDDIAG:  cpu time    2.7527: real time    2.7534
  RMM-DIIS:  cpu time    3.6110: real time    3.6129
    ORTHCH:  cpu time    0.6452: real time    0.6453
       DOS:  cpu time    0.0016: real time    0.0016
    --------------------------------------------
      LOOP:  cpu time    7.0105: real time    7.0131

 eigenvalue-minimisations  :  1200
 total energy-change (2. order) :-0.6154710E+03  (-0.5471330E+03)
 number of electron     616.0000000 magnetization 
 augmentation part      616.0000000 magnetization 

 Free energy of the ion-electron system (eV)
  ---------------------------------------------------
  alpha Z        PSCENC =       483.61783129
  Ewald energy   TEWEN  =     43865.08246963
  -Hartree energ DENC   =    -70794.28634133
  -exchange      EXHF   =         0.00000000
  -V(xc)+E(xc)   XCENC  =      2271.04415447
  PAW double counting   =     25034.14638475   -25847.60581054
  entropy T*S    EENTRO =        -0.00129280
  eigenvalues    EBANDS =     -8369.94316885
  atomic energy  EATOM  =     32433.67991533
  Solvation  Ediel_sol  =         0.00000000
  ---------------------------------------------------
  free energy    TOTEN  =      -924.26585805 eV

  energy without entropy =     -924.26456525  energy(sigma->0) =     -924.26521165


--------------------------------------------------------------------------------------------------------




--------------------------------------- Iteration      1(   6)  ---------------------------------------


    EDDIAG:  cpu time    2.7518: real time    2.7523
  RMM-DIIS:  cpu time    3.6162: real time    3.6174
    ORTHCH:  cpu time    0.6472: real time    0.6473
       DOS:  cpu time    0.0010: real time    0.0009
    --------------------------------------------
      LOOP:  cpu time    7.0161: real time    7.0180

 eigenvalue-minimisations  :  1200
 total energy-change (2. order) :-0.2154362E+03  (-0.1878251E+03)
 number of electron     616.0000000 magnetization 
 augmentation part      616.0000000 magnetization 

 Free energy of the ion-electron system (eV)
  ---------------------------------------------------
  alpha Z        PSCENC =       483.61783129
  Ewald energy   TEWEN  =     43865.08246963
  -Hartree energ DENC   =    -70794.28634133
  -exchange      EXHF   =         0.00000000
  -V(xc)+E(xc)   XCENC  =      2271.04415447
  PAW double counting   =     25034.14638475   -25847.60581054
  entropy T*S    EENTRO =        -0.00000000
  eigenvalues    EBANDS =     -8585.38061370
  atomic energy  EATOM  =     32433.67991533
  Solvation  Ediel_sol  =         0.00000000
  ---------------------------------------------------
  free energy    TOTEN  =     -1139.70201010 eV

  energy without entropy =    -1139.70201010  energy(sigma->0) =    -1139.70201010


--------------------------------------------------------------------------------------------------------




--------------------------------------- Iteration      1(   7)  ---------------------------------------


    EDDIAG:  cpu time    2.7539: real time    2.7544
  RMM-DIIS:  cpu time    3.6080: real time    3.6095
    ORTHCH:  cpu time    0.6468: real time    0.6469
       DOS:  cpu time    0.0009: real time    0.0009
    --------------------------------------------
      LOOP:  cpu time    7.0096: real time    7.0117

 eigenvalue-minimisations  :  1200
 total energy-change (2. order) :-0.6327651E+02  (-0.5911307E+02)
 number of electron     616.0000000 magnetization 
 augmentation part      616.0000000 magnetization 

 Free energy of the ion-electron system (eV)
  ---------------------------------------------------
  alpha Z        PSCENC =       483.61783129
  Ewald energy   TEWEN  =     43865.08246963
  -Hartree energ DENC   =    -70794.28634133
  -exchange      EXHF   =         0.00000000
  -V(xc)+E(xc)   XCENC  =      2271.04415447
  PAW double counting   =     25034.14638475   -25847.60581054
  entropy T*S    EENTRO =        -0.00000000
  eigenvalues    EBANDS =     -8648.65712621
  atomic energy  EATOM  =     32433.67991533
  Solvation  Ediel_sol  =         0.00000000
  ---------------------------------------------------
  free energy    TOTEN  =     -1202.97852262 eV

  energy without entropy =    -1202.97852262  energy(sigma->0) =    -1202.97852262


--------------------------------------------------------------------------------------------------------




--------------------------------------- Iteration      1(   8)  ---------------------------------------


    EDDIAG:  cpu time    2.7557: real time    2.7566
  RMM-DIIS:  cpu time    3.6168: real time    3.6182
    ORTHCH:  cpu time    0.6453: real time    0.6454
       DOS:  cpu time    0.0009: real time    0.0008
    --------------------------------------------
      LOOP:  cpu time    7.0187: real time    7.0211

 eigenvalue-minimisations  :  1200
 total energy-change (2. order) :-0.2359852E+02  (-0.2039701E+02)
 number of electron     616.0000000 magnetization 
 augmentation part      616.0000000 magnetization 

 Free energy of the ion-electron system (eV)
  ---------------------------------------------------
  alpha Z        PSCENC =       483.61783129
  Ewald energy   TEWEN  =     43865.08246963
  -Hartree energ DENC   =    -70794.28634133
  -exchange      EXHF   =         0.00000000
  -V(xc)+E(xc)   XCENC  =      2271.04415447
  PAW double counting   =     25034.14638475   -25847.60581054
  entropy T*S    EENTRO =        -0.00000000
  eigenvalues    EBANDS =     -8672.25564890
  atomic energy  EATOM  =     32433.67991533
  Solvation  Ediel_sol  =         0.00000000
  ---------------------------------------------------
  free energy    TOTEN  =     -1226.57704531 eV

  energy without entropy =    -1226.57704531  energy(sigma->0) =    -1226.57704531


--------------------------------------------------------------------------------------------------------




--------------------------------------- Iteration      1(   9)  ---------------------------------------


    EDDIAG:  cpu time    2.7517: real time    2.7523
  RMM-DIIS:  cpu time    7.5414: real time    7.5510
    ORTHCH:  cpu time    0.6454: real time    0.6455
       DOS:  cpu time    0.0009: real time    0.0009
    --------------------------------------------
      LOOP:  cpu time   10.9395: real time   10.9497

 eigenvalue-minimisations  :  2787
 total energy-change (2. order) :-0.1285442E+02  (-0.1232552E+02)
 number of electron     616.0000000 magnetization 
 augmentation part      616.0000000 magnetization 

 Free energy of the ion-electron system (eV)
  ---------------------------------------------------
  alpha Z        PSCENC =       483.61783129
  Ewald energy   TEWEN  =     43865.08246963
[...]
   -.120E+02 0.199E+03 -.307E+02   -.876E+01 -.191E+03 0.408E+02   0.208E+02 -.852E+01 -.102E+02   0.589E-05 0.559E-05 0.336E-05
   -.217E+03 -.676E+02 -.959E+02   0.213E+03 0.509E+02 0.111E+03   0.473E+01 0.167E+02 -.148E+02   0.883E-06 0.699E-06 -.170E-05
   0.216E+03 0.689E+02 0.961E+02   -.211E+03 -.523E+02 -.111E+03   -.477E+01 -.167E+02 0.148E+02   -.156E-05 -.629E-06 0.243E-05
   0.216E+03 0.684E+02 0.959E+02   -.212E+03 -.518E+02 -.111E+03   -.478E+01 -.167E+02 0.148E+02   -.151E-05 -.885E-06 0.102E-05
   -.129E+02 -.199E+03 0.309E+02   -.790E+01 0.190E+03 -.411E+02   0.208E+02 0.851E+01 0.102E+02   0.624E-05 -.510E-05 -.371E-05
   0.127E+02 0.199E+03 -.311E+02   0.809E+01 -.191E+03 0.412E+02   -.208E+02 -.851E+01 -.102E+02   -.700E-05 0.507E-05 0.277E-05
   0.119E+02 -.199E+03 0.306E+02   0.887E+01 0.191E+03 -.407E+02   -.209E+02 0.849E+01 0.101E+02   -.691E-05 -.562E-05 -.323E-05
   0.101E+03 -.105E+03 -.140E+02   -.101E+03 0.105E+03 0.139E+02   0.567E+00 -.343E+00 0.109E+00   -.124E-04 0.180E-04 0.719E-05
   0.101E+03 0.105E+03 0.140E+02   -.101E+03 -.105E+03 -.138E+02   0.569E+00 0.343E+00 -.108E+00   -.130E-04 -.185E-04 -.692E-05
   -.101E+03 -.105E+03 -.140E+02   0.101E+03 0.105E+03 0.139E+02   -.560E+00 -.347E+00 0.110E+00   0.132E-04 0.161E-04 0.520E-05
   -.100E+03 0.105E+03 0.139E+02   0.101E+03 -.105E+03 -.137E+02   -.544E+00 0.363E+00 -.121E+00   0.143E-04 -.162E-04 -.447E-05
   -.100E+03 0.105E+03 0.139E+02   0.101E+03 -.105E+03 -.138E+02   -.543E+00 0.361E+00 -.121E+00   0.122E-04 -.173E-04 -.602E-05
   0.101E+03 -.105E+03 -.141E+02   -.101E+03 0.105E+03 0.140E+02   0.567E+00 -.343E+00 0.103E+00   -.129E-04 0.148E-04 0.543E-05
   -.101E+03 -.105E+03 -.140E+02   0.102E+03 0.105E+03 0.139E+02   -.572E+00 -.338E+00 0.101E+00   0.135E-04 0.165E-04 0.530E-05
   0.100E+03 0.105E+03 0.139E+02   -.101E+03 -.105E+03 -.138E+02   0.553E+00 0.354E+00 -.113E+00   -.117E-04 -.162E-04 -.621E-05
   0.259E+03 0.166E+03 0.212E+03   -.248E+03 -.204E+03 -.249E+03   -.109E+02 0.380E+02 0.374E+02   -.122E-04 0.369E-04 -.144E-04
   -.172E+03 -.270E+03 -.289E+03   0.199E+03 0.266E+03 0.337E+03   -.264E+02 0.312E+01 -.478E+02   -.342E-04 0.311E-04 0.455E-04
   -.171E+03 0.269E+03 0.289E+03   0.198E+03 -.265E+03 -.337E+03   -.264E+02 -.314E+01 0.478E+02   -.341E-04 -.311E-04 -.445E-04
   0.172E+03 -.269E+03 -.289E+03   -.198E+03 0.266E+03 0.337E+03   0.264E+02 0.312E+01 -.478E+02   0.338E-04 0.303E-04 0.483E-04
   0.172E+03 0.268E+03 0.289E+03   -.198E+03 -.265E+03 -.337E+03   0.264E+02 -.318E+01 0.478E+02   0.349E-04 -.297E-04 -.458E-04
   -.258E+03 -.167E+03 -.212E+03   0.247E+03 0.205E+03 0.249E+03   0.110E+02 -.380E+02 -.373E+02   0.132E-04 -.367E-04 0.140E-04
   -.259E+03 0.167E+03 0.212E+03   0.248E+03 -.205E+03 -.249E+03   0.109E+02 0.381E+02 0.373E+02   0.136E-04 0.343E-04 -.156E-04
   -.258E+03 -.167E+03 -.212E+03   0.247E+03 0.205E+03 0.249E+03   0.110E+02 -.380E+02 -.374E+02   0.142E-04 -.354E-04 0.142E-04
   0.258E+03 0.167E+03 0.212E+03   -.247E+03 -.205E+03 -.249E+03   -.110E+02 0.380E+02 0.373E+02   -.128E-04 0.355E-04 -.139E-04
   0.172E+03 0.269E+03 0.289E+03   -.198E+03 -.266E+03 -.337E+03   0.263E+02 -.316E+01 0.478E+02   0.329E-04 -.317E-04 -.465E-04
   0.172E+03 -.269E+03 -.289E+03   -.199E+03 0.266E+03 0.337E+03   0.264E+02 0.313E+01 -.478E+02   0.341E-04 0.300E-04 0.466E-04
   -.172E+03 0.269E+03 0.289E+03   0.198E+03 -.266E+03 -.337E+03   -.264E+02 -.319E+01 0.478E+02   -.327E-04 -.310E-04 -.466E-04
   0.258E+03 -.167E+03 -.212E+03   -.247E+03 0.205E+03 0.249E+03   -.110E+02 -.380E+02 -.374E+02   -.139E-04 -.387E-04 0.122E-04
   -.259E+03 0.167E+03 0.212E+03   0.248E+03 -.205E+03 -.249E+03   0.109E+02 0.380E+02 0.374E+02   0.138E-04 0.370E-04 -.130E-04
   0.258E+03 -.166E+03 -.212E+03   -.247E+03 0.204E+03 0.250E+03   -.110E+02 -.380E+02 -.374E+02   -.125E-04 -.352E-04 0.150E-04
   -.172E+03 -.269E+03 -.289E+03   0.199E+03 0.266E+03 0.337E+03   -.264E+02 0.306E+01 -.478E+02   -.334E-04 0.292E-04 0.473E-04
 -----------------------------------------------------------------------------------------------
   0.244E+00 -.811E-01 0.116E+00   0.540E-12 -.739E-12 0.114E-12   -.226E+00 0.621E-01 -.776E-01   0.173E-04 -.220E-04 0.394E-05
 
 
 POSITION                                       TOTAL-FORCE (eV/Angst)
 -----------------------------------------------------------------------------------
     22.44277     24.11489     -3.84508        -0.000340     -0.000544     -0.001554
     21.50019     23.58950     -1.89623         0.002533      0.003399      0.001041
     22.43612     19.02647      2.08754        -0.000670     -0.000319      0.001875
     13.55022     11.25484      2.08698         0.000941      0.000102     -0.001860
     14.49374      7.41270     -0.73551        -0.002477     -0.003221     -0.001631
      2.49598     19.91066     -3.26416        -0.002657     -0.003017     -0.001373
     14.49382     10.72863      4.03518        -0.003033      0.003423      0.000418
     13.55475      6.88646      1.21495         0.000966     -0.000523      0.001338
      9.49980     11.08755      0.63405         0.002465      0.003759      0.000372
      1.55441     19.38577     -1.31452         0.000450      0.000000      0.002063
      2.49853     23.22629      1.50529        -0.002668      0.003742      0.000654
      9.50022      7.05141      2.66790         0.001771     -0.003347     -0.000927
     21.49585     19.55524      0.13836         0.002884     -0.002781     -0.001539
      1.55599     23.75429     -0.44289         0.000044     -0.000566     -0.001474
     10.43922      6.52650      4.61872        -0.000576      0.000392      0.001034
     10.44325     11.61629     -1.31353         0.000400     -0.000425     -0.002418
     19.71499      0.42886      0.57465         0.002130      0.007335      0.002246
     20.17159      1.40470      2.84507        -0.001507      0.000731     -0.003260
     20.16014     16.74118      0.44438         0.002725      0.000544     -0.002542
     15.82069     13.54774      3.72652        -0.001029      0.000240      0.001173
     15.82817      4.59890     -0.43138        -0.000596     -0.001046     -0.001005
      4.28130     18.07198     -0.68481        -0.002355     -0.005290      0.000119
     16.27613     12.57059      1.45651        -0.004012      0.002563     -0.001178
     16.28302      5.57286      1.84020        -0.005137     -0.001085      0.003726
      7.71490     12.92787     -1.94291         0.004097      0.003218     -0.002188
      3.82863     17.09604     -2.95586         0.000016      0.000329      0.000756
      3.82363      1.04245      6.24857        -0.000659      0.000237      0.000359
      8.16640      4.23801      2.97269         0.000335      0.000551      0.001082
     19.70712     17.71667      2.71569         0.005365     -0.001327      0.003488
      4.28056      0.06727      3.97792        -0.003268      0.002740     -0.002888
      7.71231      5.21093      5.24475         0.003197     -0.004565      0.000927
      8.16989     13.90556      0.32695        -0.000514      0.001495     -0.001048
     18.70340      1.49130      0.35118         0.002269      0.003098     -0.002019
     19.18919      2.47737      2.55364        -0.000224     -0.000258      0.000771
     19.17792     15.66873      0.73722        -0.000722     -0.000517      0.000393
     16.80185     14.62109      3.43334         0.000148     -0.001187      0.000288
     16.81114      3.52652     -0.14018         0.000069      0.000888     -0.000087
      5.29389     17.01095     -0.46009        -0.002314     -0.002792      0.001150
     17.28704     13.63319      1.23154        -0.002496      0.002754     -0.001711
     17.29619      4.51187      2.06278        -0.003067     -0.002916      0.001482
      6.70252     13.98905     -2.16751         0.002228      0.002973     -0.001481
      4.81082     16.02357     -2.66260         0.000570      0.000114     -0.000748
      4.80616      2.11518      5.95770         0.000464     -0.000334      0.000581
      7.18366      3.16552      3.26376        -0.001416     -0.001508     -0.000844
     18.69380     16.65601      2.93957         0.002816     -0.003512      0.001972
      5.29182      1.12996      3.75477        -0.003698      0.001711     -0.001550
      6.69927      4.14974      5.46722         0.003088     -0.002175      0.001672
      7.18654     14.97713      0.03445        -0.000049     -0.001066      0.000905
     17.98380      0.79361      5.96686         0.003977      0.003797     -0.001283
     18.96164      3.47656      3.49409        -0.003197     -0.001891      0.001346
     18.94944     14.66924     -0.20274        -0.002071      0.002061     -0.001639
     17.02791     16.34322     -2.43132         0.003196     -0.001411      0.002177
     17.04096      1.80624      5.72273         0.002273      0.001843     -0.002142
      6.01409     16.98832      0.72858        -0.003880     -0.003858      0.002147
     18.00720     13.65644      0.04281        -0.003764      0.003723     -0.001306
     18.01809      4.48850      3.25043        -0.004241     -0.002339      0.003901
      5.98408     13.29013      3.44743         0.002795      0.002767     -0.003029
      5.04134     14.30235      3.20149         0.002846      0.001201     -0.001687
      5.03271      3.83572      0.09461         0.002900     -0.001339      0.002312
      6.95504      2.16743      2.32239        -0.001879      0.002154     -0.002301
     17.97101     17.35535     -2.67638         0.003920     -0.003128      0.003499
      6.01240      1.15461      2.56632        -0.002956      0.003690     -0.002059
      5.97642      4.84764     -0.14880         0.004050     -0.002324      0.002414
      6.95758     15.97674      0.97410        -0.002986     -0.002147      0.001714
     21.38144     24.44858     -2.99624         0.000755      0.002404      0.000217
     21.37401     18.69627      1.23810         0.001621     -0.002106      0.001254
     14.61205     11.58813      2.93541        -0.001059      0.001743      0.000411
     14.61535      6.55397      0.36447        -0.001832     -0.001065      0.000675
      2.61600     19.05259     -2.16348        -0.001551     -0.001961      0.001048
      9.38091     11.94777     -0.46502         0.001658      0.002069     -0.000734
      2.61758     24.08652      0.40618        -0.000272      0.002700      0.000596
      9.37866      6.19342      3.76842         0.000760     -0.002108      0.000170
     18.47763      2.48732      1.33085         0.000984      0.000061     -0.000589
     18.46755     15.65928      1.96078         0.000586     -0.001240      0.000626
     17.51277     14.63022      2.21015         0.000081      0.001112     -0.000172
     17.52225      3.51615      1.08295        -0.000528     -0.000647     -0.000390
      5.52072     16.01430     -1.43877        -0.001247      0.000343      0.000762
      6.47587     14.98585     -1.18888         0.001102     -0.000477      0.000115
      5.51761      2.12554      4.73483        -0.000005      0.001027     -0.000928
      6.47288      3.15448      4.48708         0.000864     -0.000407     -0.000052
      0.45763     21.92928     -4.28151         0.000254     -0.000348      0.001065
     23.53814     21.56988     -0.87804         0.000978      0.000372      0.000446
     11.53967      9.06934      1.65132        -0.000081      0.000030     -0.001085
     12.45360      9.43098     -1.75103        -0.001257     -0.000171     -0.000742
      7.51983      2.19576      1.39096        -0.003144      0.002071     -0.001921
     17.81481     12.87737     -0.69393        -0.005255      0.004177     -0.003575
     17.82621      5.26716      3.98777        -0.006179     -0.005500      0.003104
     18.17600      0.01534      5.22921         0.005151      0.004194     -0.003703
     18.16305     18.13468     -1.93983         0.005301     -0.004818      0.003593
     16.46231     16.31691     -1.50041         0.002823     -0.002384      0.002831
      4.47693     14.32921      2.26983         0.003329      0.002607     -0.002532
      4.46657      3.80849      1.02522         0.003840     -0.002159      0.002124
     19.51386     14.69657     -1.13442        -0.003015      0.002279     -0.001905
      6.16865      5.62574      0.58900         0.005943     -0.004793      0.002969
      6.17723     12.51122      2.71065         0.005139      0.005056     -0.002508
      5.82098     17.76735      1.46514        -0.005717     -0.004892      0.003580
      7.52284     15.95077      1.90524        -0.003217     -0.002827      0.002771
     16.47598      1.83403      4.79143         0.002811      0.002347     -0.002082
     19.52806      3.44971      4.42450        -0.003651     -0.002586      0.003162
      5.82007      0.37660      1.82844        -0.005545      0.004127     -0.003613
     15.08451     11.38876     -1.86020        -0.004374      0.004408      0.003171
      8.90994      7.11285      1.75822         0.003810     -0.004004     -0.003496
     10.71545     12.02391     -2.28130        -0.001865     -0.001311     -0.003600
      1.28286     18.97972     -0.34588         0.002390      0.001669      0.003213
      3.08884     23.88558     -4.38987        -0.004375      0.004785      0.002832
     10.70803      6.84240     -1.21615        -0.001998      0.001428      0.002609
     22.71486     24.52133     -4.81339        -0.002190     -0.001473     -0.003290
     20.90471     19.61887     -0.77064         0.004216     -0.004558     -0.003161
      1.28398     24.16185     -1.41073         0.001747     -0.001058     -0.003745
     13.27760     11.66153      1.11893         0.001958     -0.001089     -0.003593
     15.08544      6.75311      5.15884        -0.004417     -0.004418     -0.002762
     20.90866     23.52814     -0.98731         0.004073      0.004766      0.003166
     13.28466      6.47983      2.18372         0.001468      0.001539      0.003302
      8.90770     11.02464      1.54249         0.004077      0.004472      0.002648
      3.08845     19.25027      2.63062        -0.004207     -0.004295     -0.002863
     22.70512     19.34085     -3.74800        -0.002179      0.001419      0.003094
     23.15121     23.11819     -3.28663        -0.000988      0.000187     -0.001098
     22.56584     22.78820     -2.09391         0.001134      0.001710      0.001517
     23.14771     20.02129      1.52969        -0.000783     -0.000416      0.001341
     12.84219     10.25790      2.64535         0.001020      0.000249     -0.000827
     13.42745      8.21272     -0.53635        -0.001635     -0.001971     -0.001042
      1.42969     20.71108     -3.06653        -0.001551     -0.001622     -0.000834
     13.42815      9.92730      3.83760        -0.002011      0.001365      0.000440
     12.84425      7.88218      0.65729        -0.000026      0.000477      0.000422
     10.56634     10.28755      0.43617         0.002088      0.001052      0.000255
      0.84494     20.38147     -1.87342         0.001432     -0.000411      0.001033
      1.43250     22.42564      1.30688        -0.001218      0.001812      0.001438
     10.56644      7.85156      2.86656         0.001757     -0.000043     -0.002670
     22.56371     20.35331      0.33692         0.001557     -0.001275     -0.001596
      0.84721     22.75731      0.11460         0.000064      0.000245     -0.001643
     11.14965      7.52192      4.06038        -0.000890     -0.000846      0.001189
     11.15221     10.61959     -0.75573        -0.001919      0.001146     -0.001330
     20.39486      0.44876      1.82193         0.002092      0.002086     -0.000883
     20.38647     17.69570      1.46813         0.001025     -0.002910      0.001053
     15.59667     12.59134      2.70399        -0.001379      0.002614     -0.001585
     15.60220      5.55241      0.59345        -0.002241     -0.002062      0.000975
      3.60202     18.05071     -1.93233        -0.001742     -0.002116      0.000287
      8.39465     12.94949     -0.69572         0.002674      0.002052     -0.000323
      3.60063      0.08667      5.22514        -0.002588      0.001920     -0.000651
      8.39220      5.19152      3.99756         0.002474     -0.001528     -0.000083
     19.96437     23.85134      1.48683         0.005195      0.000551     -0.006261
     20.76621      1.33550      3.91833         0.000925     -0.000040      0.004066
     20.75305     16.81096     -0.62989        -0.002094     -0.000082      0.001819
     15.22635     14.20013     -2.00322         0.000884     -0.000281      0.000597
     15.23609      3.94777      5.29867         0.000625      0.000239     -0.000633
      4.03324     18.93091      0.15751        -0.004827     -0.003559      0.004824
     16.03008     11.71073      0.61446        -0.004014      0.003999     -0.002345
     16.03562      6.43092      2.68369        -0.005614     -0.007603      0.000445
      7.96387     11.34707      4.01856         0.005241      0.005894     -0.003537
      3.23781     16.44434      2.77347         0.000863      0.000499     -0.001849
      3.22743      1.69477      0.51778         0.000821     -0.000025      0.000686
      8.75985      4.30874      1.89885         0.000277      0.000077     -0.002569
     19.95457     19.29659     -3.24522         0.005480     -0.007546      0.002732
      4.03656     24.21174     -1.91424        -0.004509      0.005171     -0.001437
      7.95900      6.79001     -0.71515         0.005410     -0.004575      0.003590
      8.76432     13.83754      1.40043         0.000956      0.000242      0.001355
 -----------------------------------------------------------------------------------
    total drift:                                0.017863     -0.019072      0.038568


--------------------------------------------------------------------------------------------------------



  FREE ENERGIE OF THE ION-ELECTRON SYSTEM (eV)
  ---------------------------------------------------
  free  energy   TOTEN  =     -1161.91847352 eV

  energy  without entropy=    -1161.91847352  energy(sigma->0) =    -1161.91847352
 


--------------------------------------------------------------------------------------------------------


    POTLOK:  cpu time    0.2922: real time    0.2922


--------------------------------------------------------------------------------------------------------


 Quasi-Newton relaxation of ions (Broydens 2nd method)
  g(Force)  = 0.147E-03   g(Stress)= 0.277E-05

 Reset! Starting new Quasi-Newton update for ions 


--------------------------------------------------------------------------------------------------------


  
 reached required accuracy - stopping structural energy minimisation
 writing wavefunctions
     LOOP+:  cpu time  410.2189: real time  419.5608
    4ORBIT:  cpu time    0.0001: real time    0.0001

 total amount of memory used by VASP MPI-rank0   109949. kBytes
=======================================================================

   base      :      30000. kBytes
   nonlr-proj:       6277. kBytes
   fftplans  :      11983. kBytes
   grid      :      20725. kBytes
   one-center:        606. kBytes
   wavefun   :      40358. kBytes
 
  
  
 General timing and accounting informations for this job:
 ========================================================
  
                  Total CPU time used (sec):      504.496
                            User time (sec):      450.194
                          System time (sec):       54.302
                         Elapsed time (sec):      515.975
  
                   Maximum memory used (kb):      990288.
                   Average memory used (kb):           0.
  
                          Minor page faults:       280379
                          Major page faults:            4
                 Voluntary context switches:         7690
