       N       E                     dE             d eps       ncg     rms          rms(c)
RMM:   1     0.766573969297E+04    0.76657E+04   -0.23527E+05  2400   0.128E+03
RMM:   2     0.284758267086E+04   -0.48182E+04   -0.67549E+04  2400   0.287E+02
RMM:   3     0.721582460908E+03   -0.21260E+04   -0.27975E+04  2400   0.181E+02
RMM:   4    -0.520629238920E+03   -0.12422E+04   -0.12269E+04  2400   0.147E+02
RMM:   5    -0.996449695278E+03   -0.47582E+03   -0.42391E+03  2400   0.911E+01
RMM:   6    -0.115682570676E+04   -0.16038E+03   -0.13938E+03  2400   0.554E+01
RMM:   7    -0.120832746896E+04   -0.51502E+02   -0.47574E+02  2400   0.319E+01
RMM:   8    -0.122732806775E+04   -0.19001E+02   -0.16884E+02  2400   0.197E+01
RMM:   9    -0.123862187974E+04   -0.11294E+02   -0.10797E+02  5839   0.117E+01
RMM:  10    -0.123924753531E+04   -0.62566E+00   -0.61813E+00  6332   0.332E+00
RMM:  11    -0.123929268871E+04   -0.45153E-01   -0.37980E-01  5931   0.680E-01
RMM:  12    -0.123929426074E+04   -0.15720E-02   -0.16457E-02  6267   0.171E-01    0.577E+01
RMM:  13    -0.116767353255E+04    0.71621E+02   -0.15957E+02  4800   0.163E+01    0.321E+01
RMM:  14    -0.115277942614E+04    0.14894E+02   -0.43458E+01  4800   0.848E+00    0.149E+01
RMM:  15    -0.115120550930E+04    0.15739E+01   -0.10430E+01  4800   0.444E+00    0.498E+00
RMM:  16    -0.115098158429E+04    0.22393E+00   -0.80581E-01  4909   0.140E+00    0.141E+00
RMM:  17    -0.115095605291E+04    0.25531E-01   -0.16767E-01  4834   0.675E-01    0.498E-01
RMM:  18    -0.115094660194E+04    0.94510E-02   -0.58027E-02  4809   0.305E-01    0.295E-01
RMM:  19    -0.115094522321E+04    0.13787E-02   -0.14398E-02  4826   0.167E-01    0.152E-01
RMM:  20    -0.115095192988E+04   -0.67067E-02   -0.13580E-02  4802   0.137E-01    0.894E-02
RMM:  21    -0.115095545312E+04   -0.35232E-02   -0.47021E-03  4870   0.763E-02    0.674E-02
RMM:  22    -0.115096015537E+04   -0.47022E-02   -0.15558E-03  4833   0.513E-02    0.321E-02
RMM:  23    -0.115096131146E+04   -0.11561E-02   -0.28526E-04  4914   0.222E-02    0.196E-02
RMM:  24    -0.115096268337E+04   -0.13719E-02   -0.10361E-04  4803   0.138E-02    0.124E-02
RMM:  25    -0.115096376668E+04   -0.10833E-02   -0.88089E-05  4752   0.108E-02    0.727E-03
RMM:  26    -0.115096423350E+04   -0.46681E-03   -0.29287E-05  4328   0.551E-03    0.409E-03
RMM:  27    -0.115096443605E+04   -0.20255E-03   -0.12235E-05  4034   0.352E-03    0.207E-03
RMM:  28    -0.115096450042E+04   -0.64371E-04   -0.37374E-06  3420   0.186E-03    0.109E-03
RMM:  29    -0.115096453343E+04   -0.33006E-04   -0.22302E-06  3192   0.132E-03    0.679E-04
RMM:  30    -0.115096454500E+04   -0.11571E-04   -0.11436E-06  2731   0.103E-03    0.605E-04
RMM:  31    -0.115096454707E+04   -0.20706E-05   -0.38890E-07  2470   0.793E-04    0.376E-04
RMM:  32    -0.115096454774E+04   -0.67259E-06   -0.18783E-07  2283   0.550E-04
   1 F= -.11619172E+04 E0= -.11619172E+04  d E =-.116192E+04
