 vasp.6.0.8 29Jun18 (build Mar 14 2019 11:44:20) complex                        
  
 executed on             LinuxIFC date 2021.01.10  22:42:18
 running   64 mpi-ranks, with    1 threads/rank
 distrk:  each k-point on   64 cores,    1 groups
 distr:  one band on NCORES_PER_BAND=   4 cores,   16 groups


--------------------------------------------------------------------------------------------------------


 INCAR:
 POTCAR:    PAW_PBE C 08Apr2002                   
 POTCAR:    PAW_PBE Zn 06Sep2000                  
 POTCAR:    PAW_PBE H 15Jun2001                   
 POTCAR:    PAW_PBE N 08Apr2002                   
 POTCAR:    PAW_PBE O 08Apr2002                   
 POTCAR:    PAW_PBE C 08Apr2002                   
   VRHFIN =C: s2p2                                                              
   LEXCH  = PE                                                                  
   EATOM  =   147.1560 eV,   10.8157 Ry                                         
                                                                                
   TITEL  = PAW_PBE C 08Apr2002                                                 
   LULTRA =        F    use ultrasoft PP ?                                      
   IUNSCR =        1    unscreen: 0-lin 1-nonlin 2-no                           
   RPACOR =    1.200    partial core radius                                     
   POMASS =   12.011; ZVAL   =    4.000    mass and valenz                      
   RCORE  =    1.500    outmost cutoff radius                                   
   RWIGS  =    1.630; RWIGS  =    0.863    wigner-seitz radius (au A)           
   ENMAX  =  400.000; ENMIN  =  300.000 eV                                      
   ICORE  =        2    local potential                                         
   LCOR   =        T    correct aug charges                                     
   LPAW   =        T    paw PP                                                  
   EAUG   =  644.873                                                            
   DEXC   =    0.000                                                            
   RMAX   =    1.529    core radius for proj-oper                               
   RAUG   =    1.300    factor for augmentation sphere                          
   RDEP   =    1.501    radius for radial grids                                 
   RDEPT  =    1.300    core radius for aug-charge                              
                                                                                
   Atomic configuration                                                         
    4 entries                                                                   
     n  l   j            E        occ.                                          
     1  0  0.50      -273.3789   2.0000                                         
     2  0  0.50       -13.7508   2.0000                                         
     2  1  0.50        -5.2854   2.0000                                         
     3  2  1.50        -5.4423   0.0000                                         
   Description                                                                  
     l       E           TYP  RCUT    TYP  RCUT                                 
     0    -13.7508458     23  1.200                                             
     0     -8.2022199     23  1.200                                             
     1     -5.2854383     23  1.500                                             
     1     34.0145650     23  1.500                                             
     2     -5.4423304      7  1.500                                             
  local pseudopotential read in
  partial core-charges read in
  partial kinetic energy density read in
  atomic valenz-charges read in
  non local Contribution for L=           0  read in
    real space projection operators read in
  non local Contribution for L=           0  read in
    real space projection operators read in
  non local Contribution for L=           1  read in
    real space projection operators read in
  non local Contribution for L=           1  read in
    real space projection operators read in
    PAW grid and wavefunctions read in
 
   number of l-projection  operators is LMAX  =           4
   number of lm-projection operators is LMMAX =           8
 
 POTCAR:    PAW_PBE Zn 06Sep2000                  
   VRHFIN =Zn: d10 p2                                                           
   LEXCH  = PE                                                                  
   EATOM  =  1748.8345 eV,  128.5357 Ry                                         
                                                                                
   TITEL  = PAW_PBE Zn 06Sep2000                                                
   LULTRA =        F    use ultrasoft PP ?                                      
   IUNSCR =        1    unscreen: 0-lin 1-nonlin 2-no                           
   RPACOR =    2.000    partial core radius                                     
   POMASS =   65.390; ZVAL   =   12.000    mass and valenz                      
   RCORE  =    2.300    outmost cutoff radius                                   
   RWIGS  =    2.400; RWIGS  =    1.270    wigner-seitz radius (au A)           
   ENMAX  =  276.723; ENMIN  =  207.542 eV                                      
   RCLOC  =    1.828    cutoff for local pot                                    
   LCOR   =        T    correct aug charges                                     
   LPAW   =        T    paw PP                                                  
   EAUG   =  575.892                                                            
   DEXC   =    0.000                                                            
   RMAX   =    2.347    core radius for proj-oper                               
   RAUG   =    1.300    factor for augmentation sphere                          
   RDEP   =    2.324    radius for radial grids                                 
   RDEPT  =    1.788    core radius for aug-charge                              
                                                                                
   Atomic configuration                                                         
    9 entries                                                                   
     n  l   j            E        occ.                                          
     1  0  0.50     -9524.6913   2.0000                                         
     2  0  0.50     -1158.1882   2.0000                                         
     2  1  1.50     -1003.8506   6.0000                                         
     3  0  0.50      -129.2194   2.0000                                         
     3  1  1.50       -83.3890   6.0000                                         
     3  2  2.50       -10.1410  10.0000                                         
     4  0  0.50        -5.9785   2.0000                                         
     4  1  0.50        -4.0817   0.0000                                         
     4  3  2.50        -1.3606   0.0000                                         
   Description                                                                  
     l       E           TYP  RCUT    TYP  RCUT                                 
     2    -10.1410010     23  2.300                                             
     2    -11.5015836     23  2.300                                             
     0     -5.9785163     23  2.300                                             
     0      1.1858015     23  2.300                                             
     1     -2.7211652     23  2.300                                             
     1     13.2444212     23  2.300                                             
  local pseudopotential read in
  partial core-charges read in
  partial kinetic energy density read in
  atomic valenz-charges read in
  non local Contribution for L=           2  read in
    real space projection operators read in
  non local Contribution for L=           2  read in
    real space projection operators read in
  non local Contribution for L=           0  read in
    real space projection operators read in
  non local Contribution for L=           0  read in
    real space projection operators read in
  non local Contribution for L=           1  read in
    real space projection operators read in
  non local Contribution for L=           1  read in
    real space projection operators read in
    PAW grid and wavefunctions read in
 
   number of l-projection  operators is LMAX  =           6
   number of lm-projection operators is LMMAX =          18
 
 POTCAR:    PAW_PBE H 15Jun2001                   
   VRHFIN =H: ultrasoft test                                                    
   LEXCH  = PE                                                                  
   EATOM  =    12.4884 eV,    0.9179 Ry                                         
                                                                                
   TITEL  = PAW_PBE H 15Jun2001                                                 
   LULTRA =        F    use ultrasoft PP ?                                      
   IUNSCR =        0    unscreen: 0-lin 1-nonlin 2-no                           
   RPACOR =    0.000    partial core radius                                     
   POMASS =    1.000; ZVAL   =    1.000    mass and valenz                      
   RCORE  =    1.100    outmost cutoff radius                                   
   RWIGS  =    0.700; RWIGS  =    0.370    wigner-seitz radius (au A)           
   ENMAX  =  250.000; ENMIN  =  200.000 eV                                      
   RCLOC  =    0.701    cutoff for local pot                                    
   LCOR   =        T    correct aug charges                                     
   LPAW   =        T    paw PP                                                  
   EAUG   =  400.000                                                            
   RMAX   =    1.123    core radius for proj-oper                               
   RAUG   =    1.200    factor for augmentation sphere                          
   RDEP   =    1.112    radius for radial grids                                 
   RDEPT  =    0.926    core radius for aug-charge                              
                                                                                
   Atomic configuration                                                         
    2 entries                                                                   
     n  l   j            E        occ.                                          
     1  0  0.50        -6.4927   1.0000                                         
     2  1  0.50        -3.4015   0.0000                                         
   Description                                                                  
     l       E           TYP  RCUT    TYP  RCUT                                 
     0     -6.4927494     23  1.100                                             
     0      6.8029130     23  1.100                                             
     1     -4.0817478     23  1.100                                             
  local pseudopotential read in
  atomic valenz-charges read in
  non local Contribution for L=           0  read in
    real space projection operators read in
  non local Contribution for L=           0  read in
    real space projection operators read in
  non local Contribution for L=           1  read in
    real space projection operators read in
    PAW grid and wavefunctions read in
 
   number of l-projection  operators is LMAX  =           3
   number of lm-projection operators is LMMAX =           5
 
 POTCAR:    PAW_PBE N 08Apr2002                   
   VRHFIN =N: s2p3                                                              
   LEXCH  = PE                                                                  
   EATOM  =   264.5486 eV,   19.4438 Ry                                         
                                                                                
   TITEL  = PAW_PBE N 08Apr2002                                                 
   LULTRA =        F    use ultrasoft PP ?                                      
   IUNSCR =        1    unscreen: 0-lin 1-nonlin 2-no                           
   RPACOR =    1.200    partial core radius                                     
   POMASS =   14.001; ZVAL   =    5.000    mass and valenz                      
   RCORE  =    1.500    outmost cutoff radius                                   
   RWIGS  =    1.400; RWIGS  =    0.741    wigner-seitz radius (au A)           
   ENMAX  =  400.000; ENMIN  =  300.000 eV                                      
   ICORE  =        2    local potential                                         
   LCOR   =        T    correct aug charges                                     
   LPAW   =        T    paw PP                                                  
   EAUG   =  627.112                                                            
   DEXC   =    0.000                                                            
   RMAX   =    1.529    core radius for proj-oper                               
   RAUG   =    1.300    factor for augmentation sphere                          
   RDEP   =    1.514    radius for radial grids                                 
   RDEPT  =    1.338    core radius for aug-charge                              
                                                                                
   Atomic configuration                                                         
    4 entries                                                                   
     n  l   j            E        occ.                                          
     1  0  0.50      -384.7179   2.0000                                         
     2  0  0.50       -18.5828   2.0000                                         
     2  1  0.50        -7.0898   3.0000                                         
     3  2  1.50        -6.8029   0.0000                                         
   Description                                                                  
     l       E           TYP  RCUT    TYP  RCUT                                 
     0    -18.5828119     23  1.200                                             
     0    -13.5018863     23  1.200                                             
     1     -7.0897853     23  1.500                                             
     1      9.5240782     23  1.500                                             
     2     -6.8029130      7  1.500                                             
  local pseudopotential read in
  partial core-charges read in
  partial kinetic energy density read in
  atomic valenz-charges read in
  non local Contribution for L=           0  read in
    real space projection operators read in
  non local Contribution for L=           0  read in
    real space projection operators read in
  non local Contribution for L=           1  read in
    real space projection operators read in
  non local Contribution for L=           1  read in
    real space projection operators read in
    PAW grid and wavefunctions read in
 
   number of l-projection  operators is LMAX  =           4
   number of lm-projection operators is LMMAX =           8
 
 POTCAR:    PAW_PBE O 08Apr2002                   
   VRHFIN =O: s2p4                                                              
   LEXCH  = PE                                                                  
   EATOM  =   432.3788 eV,   31.7789 Ry                                         
                                                                                
   TITEL  = PAW_PBE O 08Apr2002                                                 
   LULTRA =        F    use ultrasoft PP ?                                      
   IUNSCR =        1    unscreen: 0-lin 1-nonlin 2-no                           
   RPACOR =    1.200    partial core radius                                     
   POMASS =   16.000; ZVAL   =    6.000    mass and valenz                      
   RCORE  =    1.520    outmost cutoff radius                                   
   RWIGS  =    1.550; RWIGS  =    0.820    wigner-seitz radius (au A)           
   ENMAX  =  400.000; ENMIN  =  300.000 eV                                      
   ICORE  =        2    local potential                                         
   LCOR   =        T    correct aug charges                                     
   LPAW   =        T    paw PP                                                  
   EAUG   =  605.392                                                            
   DEXC   =    0.000                                                            
   RMAX   =    1.553    core radius for proj-oper                               
   RAUG   =    1.300    factor for augmentation sphere                          
   RDEP   =    1.550    radius for radial grids                                 
   RDEPT  =    1.329    core radius for aug-charge                              
                                                                                
   Atomic configuration                                                         
    4 entries                                                                   
     n  l   j            E        occ.                                          
     1  0  0.50      -514.6923   2.0000                                         
     2  0  0.50       -23.9615   2.0000                                         
     2  1  0.50        -9.0305   4.0000                                         
     3  2  1.50        -9.5241   0.0000                                         
   Description                                                                  
     l       E           TYP  RCUT    TYP  RCUT                                 
     0    -23.9615318     23  1.200                                             
     0     -9.5240782     23  1.200                                             
     1     -9.0304911     23  1.520                                             
     1      8.1634956     23  1.520                                             
     2     -9.5240782      7  1.500                                             
  local pseudopotential read in
  partial core-charges read in
  partial kinetic energy density read in
  kinetic energy density of atom read in
  atomic valenz-charges read in
  non local Contribution for L=           0  read in
    real space projection operators read in
  non local Contribution for L=           0  read in
    real space projection operators read in
  non local Contribution for L=           1  read in
    real space projection operators read in
  non local Contribution for L=           1  read in
    real space projection operators read in
    PAW grid and wavefunctions read in
 
   number of l-projection  operators is LMAX  =           4
   number of lm-projection operators is LMMAX =           8
 
 Optimization of the real space projectors (new method)

 maximal supplied QI-value         = 25.13
 optimisation between [QCUT,QGAM] = [ 12.32, 24.88] = [ 42.47,173.37] Ry 
 Optimized for a Real-space Cutoff    1.06 Angstroem

   l    n(q)    QCUT    max X(q) W(low)/X(q) W(high)/X(q)  e(spline) 
   0      8    12.315   115.676    0.34E-03    0.18E-03    0.23E-06
   0      8    12.315    87.132    0.34E-03    0.18E-03    0.22E-06
   1      7    12.315     4.429    0.45E-03    0.12E-03    0.18E-06
   1      7    12.315     2.733    0.35E-03    0.97E-04    0.15E-06
 Optimization of the real space projectors (new method)

 maximal supplied QI-value         = 16.25
 optimisation between [QCUT,QGAM] = [ 12.51, 25.03] = [ 43.85,175.40] Ry 
 Optimized for a Real-space Cutoff    1.31 Angstroem

   l    n(q)    QCUT    max X(q) W(low)/X(q) W(high)/X(q)  e(spline) 
   2      9    12.514    46.356    0.36E-03    0.54E-03    0.48E-06
   2      9    12.514    41.843    0.37E-03    0.56E-03    0.49E-06
   0     10    12.514    48.958    0.13E-03    0.28E-03    0.23E-06
   0     10    12.514    32.776    0.12E-03    0.26E-03    0.22E-06
   1      9    12.514    17.787    0.44E-03    0.44E-04    0.36E-06
   1      9    12.514    14.435    0.39E-03    0.39E-04    0.32E-06
 Optimization of the real space projectors (new method)

 maximal supplied QI-value         = 34.20
 optimisation between [QCUT,QGAM] = [ 12.31, 24.97] = [ 42.46,174.58] Ry 
 Optimized for a Real-space Cutoff    1.00 Angstroem

   l    n(q)    QCUT    max X(q) W(low)/X(q) W(high)/X(q)  e(spline) 
   0      7    12.313    19.460    0.14E-03    0.42E-03    0.16E-06
   0      7    12.313    12.209    0.12E-03    0.40E-03    0.16E-06
   1      7    12.313     4.655    0.33E-03    0.59E-03    0.89E-07
 Optimization of the real space projectors (new method)

 maximal supplied QI-value         = 25.13
 optimisation between [QCUT,QGAM] = [ 12.32, 24.88] = [ 42.47,173.37] Ry 
 Optimized for a Real-space Cutoff    1.20 Angstroem

   l    n(q)    QCUT    max X(q) W(low)/X(q) W(high)/X(q)  e(spline) 
   0      9    12.315    79.467    0.14E-03    0.22E-04    0.37E-06
   0      9    12.315    66.151    0.14E-03    0.23E-04    0.36E-06
   1      8    12.315    22.077    0.30E-03    0.54E-03    0.45E-06
   1      8    12.315    15.894    0.30E-03    0.55E-03    0.45E-06
 Optimization of the real space projectors (new method)

 maximal supplied QI-value         = 24.76
 optimisation between [QCUT,QGAM] = [ 12.38, 25.00] = [ 42.90,175.06] Ry 
 Optimized for a Real-space Cutoff    1.13 Angstroem

   l    n(q)    QCUT    max X(q) W(low)/X(q) W(high)/X(q)  e(spline) 
   0      8    12.378    20.381    0.16E-03    0.54E-05    0.27E-06
   0      8    12.378    15.268    0.17E-03    0.61E-05    0.29E-06
   1      8    12.378     5.964    0.38E-03    0.23E-03    0.28E-06
   1      8    12.378     5.382    0.33E-03    0.20E-03    0.25E-06
  PAW_PBE C 08Apr2002                   :
 energy of atom  1       EATOM= -147.1560
 kinetic energy error for atom=    0.0057 (will be added to EATOM!!)
  PAW_PBE Zn 06Sep2000                  :
 energy of atom  2       EATOM=-1748.8345
 kinetic energy error for atom=    0.0020 (will be added to EATOM!!)
  PAW_PBE H 15Jun2001                   :
 energy of atom  3       EATOM=  -12.4884
 kinetic energy error for atom=    0.0004 (will be added to EATOM!!)
  PAW_PBE N 08Apr2002                   :
 energy of atom  4       EATOM= -264.5486
 kinetic energy error for atom=    0.0103 (will be added to EATOM!!)
  PAW_PBE O 08Apr2002                   :
 energy of atom  5       EATOM= -432.3788
 kinetic energy error for atom=    0.0168 (will be added to EATOM!!)
 
 
 POSCAR: Zn_H
  positions in direct lattice
  velocities in cartesian coordinates
 exchange correlation table for  LEXCH =        8
   RHO(1)=    0.500       N(1)  =     2000
   RHO(2)=  100.500       N(2)  =     4000
 


--------------------------------------------------------------------------------------------------------


 ion  position               nearest neighbor table
   1  0.936  0.962  0.138- 107 1.08 117 1.34  65 1.40
   2  0.859  0.952  0.414- 112 1.09 118 1.35  65 1.40
   3  0.937  0.794  0.907- 116 1.08 119 1.34  66 1.40
   4  0.564  0.462  0.638- 110 1.08 120 1.34  67 1.40
   5  0.640  0.304  0.131- 111 1.09 121 1.35  68 1.40
   6  0.141  0.804  0.131- 115 1.09 122 1.35  69 1.40
   7  0.641  0.452  0.915- 101 1.09 123 1.35  67 1.40
   8  0.563  0.294  0.407- 113 1.08 124 1.34  68 1.40
   9  0.360  0.452  0.415- 114 1.09 125 1.35  70 1.40
  10  0.064  0.794  0.407- 104 1.08 126 1.34  69 1.40
  11  0.140  0.952  0.915- 105 1.09 127 1.35  71 1.40
  12  0.359  0.304  0.631- 102 1.09 128 1.35  72 1.40
  13  0.860  0.804  0.631- 108 1.09 129 1.35  66 1.40
  14  0.063  0.962  0.637- 109 1.08 130 1.34  71 1.40
  15  0.436  0.294  0.907- 106 1.08 131 1.34  72 1.40
  16  0.437  0.462  0.138- 103 1.08 132 1.34  70 1.40
  17  0.788  0.026  0.098- 141 1.23 133 1.42  33 1.48
  18  0.852  0.058  0.460- 142 1.23 133 1.41  34 1.48
  19  0.853  0.697  0.585- 143 1.23 134 1.41  35 1.48
  20  0.648  0.558  0.960- 144 1.23 135 1.42  36 1.48
  21  0.646  0.197  0.086- 145 1.23 136 1.41  37 1.48
  22  0.212  0.730  0.446- 146 1.23 137 1.42  38 1.48
  23  0.712  0.526  0.598- 147 1.23 135 1.42  39 1.48
  24  0.711  0.229  0.448- 148 1.23 136 1.42  40 1.48
  25  0.289  0.526  0.098- 149 1.23 138 1.42  41 1.48
  26  0.148  0.698  0.085- 150 1.23 137 1.41  42 1.48
  27  0.146  0.059  0.959- 151 1.23 139 1.41  43 1.48
  28  0.352  0.198  0.585- 152 1.23 140 1.42  44 1.48
  29  0.789  0.729  0.948- 153 1.23 134 1.42  45 1.48
  30  0.211  0.026  0.597- 154 1.23 139 1.42  46 1.48
  31  0.288  0.230  0.947- 155 1.23 140 1.42  47 1.48
  32  0.353  0.559  0.460- 156 1.23 138 1.41  48 1.48
  33  0.751  0.070  0.099-  49 1.39  73 1.42  17 1.48
  34  0.815  0.102  0.453-  50 1.39  73 1.42  18 1.48
  35  0.817  0.654  0.593-  51 1.39  74 1.42  19 1.48
  36  0.684  0.602  0.952-  52 1.39  75 1.42  20 1.48
  37  0.683  0.153  0.093-  53 1.39  76 1.42  21 1.48
  38  0.248  0.686  0.445-  54 1.39  77 1.42  22 1.48
  39  0.748  0.570  0.599-  55 1.39  75 1.42  23 1.48
  40  0.747  0.185  0.446-  56 1.39  76 1.42  24 1.48
  41  0.253  0.570  0.099-  57 1.39  78 1.42  25 1.48
  42  0.184  0.654  0.092-  58 1.39  77 1.42  26 1.48
  43  0.183  0.102  0.952-  59 1.39  79 1.42  27 1.48
  44  0.316  0.154  0.592-  60 1.39  80 1.42  28 1.48
  45  0.753  0.685  0.946-  61 1.39  74 1.42  29 1.48
  46  0.247  0.071  0.598-  62 1.39  79 1.42  30 1.48
  47  0.252  0.186  0.945-  63 1.39  80 1.42  31 1.48
  48  0.317  0.602  0.452-  64 1.39  78 1.42  32 1.48
  49  0.703  0.076  0.927-  88 1.09  33 1.39  53 1.40
  50  0.830  0.138  0.622-  99 1.09  34 1.39  56 1.40
  51  0.831  0.617  0.424-  93 1.09  35 1.39  55 1.40
  52  0.670  0.638  0.122-  90 1.09  36 1.39  61 1.40
  53  0.668  0.117  0.924-  98 1.09  37 1.39  49 1.40
  54  0.297  0.680  0.618-  96 1.09  38 1.39  64 1.40
  55  0.797  0.576  0.427-  86 1.09  39 1.39  51 1.40
  56  0.796  0.180  0.619-  87 1.09  40 1.39  50 1.40
  57  0.204  0.576  0.926-  95 1.09  41 1.39  58 1.40
  58  0.170  0.617  0.923-  91 1.09  42 1.39  57 1.40
  59  0.169  0.139  0.121-  92 1.09  43 1.39  63 1.40
  60  0.330  0.118  0.423-  85 1.09  44 1.39  62 1.40
  61  0.704  0.680  0.119-  89 1.09  45 1.39  52 1.40
  62  0.296  0.076  0.426- 100 1.09  46 1.39  60 1.40
  63  0.203  0.180  0.118-  94 1.09  47 1.39  59 1.40
  64  0.331  0.639  0.621-  97 1.09  48 1.39  54 1.40
  65  0.873  0.981  0.279-   1 1.40   2 1.40 133 1.42
  66  0.874  0.774  0.766-   3 1.40  13 1.40 134 1.42
  67  0.626  0.481  0.779-   4 1.40   7 1.40 135 1.42
  68  0.625  0.274  0.266-   8 1.40   5 1.40 136 1.42
  69  0.126  0.775  0.265-  10 1.40   6 1.40 137 1.42
  70  0.374  0.482  0.279-  16 1.40   9 1.40 138 1.42
  71  0.125  0.982  0.779-  14 1.40  11 1.40 139 1.42
  72  0.374  0.275  0.766-  15 1.40  12 1.40 140 1.42
  73  0.766  0.106  0.274-  33 1.42  34 1.42  76 1.43
  74  0.768  0.649  0.771-  45 1.42  35 1.42  75 1.43
  75  0.733  0.607  0.774-  39 1.42  36 1.42  74 1.43
  76  0.732  0.149  0.271-  40 1.42  37 1.42  73 1.43
  77  0.233  0.649  0.270-  38 1.42  42 1.42  78 1.43
  78  0.268  0.607  0.274-  41 1.42  48 1.42  77 1.43
  79  0.232  0.107  0.773-  46 1.42  43 1.42  80 1.43
  80  0.267  0.149  0.770-  47 1.42  44 1.42  79 1.43
  81  0.037  0.878  0.023- 127 1.97 122 1.97 117 2.02 119 2.02
  82  0.963  0.878  0.523- 118 1.97 129 1.97 130 2.02 126 2.02
  83  0.463  0.378  0.523- 125 1.97 128 1.97 120 2.02 124 2.02
  84  0.538  0.378  0.023- 121 1.97 123 1.97 131 2.02 132 2.02
  85  0.368  0.122  0.289-  60 1.09
  86  0.807  0.547  0.294-  55 1.09
  87  0.806  0.208  0.751-  56 1.09
  88  0.692  0.047  0.794-  49 1.09
  89  0.694  0.709  0.251-  61 1.09
  90  0.632  0.634  0.257-  52 1.09
  91  0.132  0.622  0.788-  58 1.09
  92  0.131  0.134  0.256-  59 1.09
  93  0.869  0.622  0.289-  51 1.09
  94  0.192  0.209  0.251-  63 1.09
  95  0.193  0.547  0.794-  57 1.09
  96  0.307  0.709  0.751-  54 1.09
  97  0.369  0.634  0.757-  64 1.09
  98  0.630  0.122  0.789-  53 1.09
  99  0.868  0.133  0.757-  50 1.09
 100  0.306  0.047  0.294-  62 1.09
 101  0.682  0.455  0.052-   7 1.09
 102  0.318  0.301  0.494-  12 1.09
 103  0.466  0.474  0.008-  16 1.08
 104  0.035  0.781  0.536-  10 1.08
 105  0.181  0.955  0.052-  11 1.09
 106  0.465  0.282  0.037-  15 1.08
 107  0.965  0.974  0.008-   1 1.08
 108  0.818  0.801  0.493-  13 1.09
 109  0.034  0.974  0.507-  14 1.08
 110  0.535  0.474  0.508-   4 1.08
 111  0.682  0.301  0.993-   5 1.09
 112  0.818  0.955  0.552-   2 1.09
 113  0.534  0.281  0.537-   8 1.08
 114  0.318  0.455  0.552-   9 1.09
 115  0.182  0.801  0.993-   6 1.09
 116  0.966  0.781  0.037-   3 1.08
 117  0.957  0.923  0.185-   1 1.34 118 1.37  81 2.02
 118  0.910  0.917  0.354-   2 1.35 117 1.37  82 1.97
 119  0.958  0.832  0.859-   3 1.34 129 1.37  81 2.02
 120  0.543  0.423  0.686-   4 1.34 123 1.37  83 2.02
 121  0.590  0.339  0.191-   5 1.35 124 1.37  84 1.97
 122  0.090  0.839  0.191-   6 1.35 126 1.37  81 1.97
 123  0.590  0.417  0.854-   7 1.35 120 1.37  84 1.97
 124  0.542  0.332  0.360-   8 1.34 121 1.37  83 2.02
 125  0.410  0.417  0.354-   9 1.35 132 1.37  83 1.97
 126  0.043  0.832  0.359-  10 1.34 122 1.37  82 2.02
 127  0.090  0.917  0.854-  11 1.35 130 1.37  81 1.97
 128  0.410  0.339  0.692-  12 1.35 131 1.37  83 1.97
 129  0.910  0.839  0.691-  13 1.35 119 1.37  82 1.97
 130  0.042  0.923  0.685-  14 1.34 127 1.37  82 2.02
 131  0.457  0.333  0.860-  15 1.34 128 1.37  84 2.02
 132  0.458  0.423  0.186-  16 1.34 125 1.37  84 2.02
 133  0.835  0.023  0.281-  18 1.41  17 1.42  65 1.42
 134  0.836  0.733  0.764-  19 1.41  29 1.42  66 1.42
 135  0.665  0.523  0.782-  20 1.42  23 1.42  67 1.42
 136  0.663  0.233  0.264-  21 1.41  24 1.42  68 1.42
 137  0.165  0.733  0.263-  26 1.41  22 1.42  69 1.42
 138  0.336  0.523  0.281-  32 1.41  25 1.42  70 1.42
 139  0.163  0.023  0.781-  27 1.41  30 1.42  71 1.42
 140  0.335  0.233  0.763-  28 1.42  31 1.42  72 1.42
 141  0.778  0.994  0.947-  17 1.23
 142  0.895  0.052  0.612-  18 1.23
 143  0.896  0.703  0.433-  19 1.23
 144  0.605  0.553  0.112-  20 1.23
 145  0.604  0.203  0.934-  21 1.23
 146  0.222  0.762  0.597-  22 1.23
 147  0.722  0.494  0.447-  23 1.23
 148  0.721  0.262  0.598-  24 1.23
 149  0.279  0.494  0.947-  25 1.23
 150  0.105  0.703  0.933-  26 1.23
 151  0.104  0.053  0.111-  27 1.23
 152  0.395  0.203  0.434-  28 1.23
 153  0.779  0.762  0.098-  29 1.23
 154  0.221  0.994  0.447-  30 1.23
 155  0.278  0.262  0.097-  31 1.23
 156  0.396  0.553  0.612-  32 1.23
 

IMPORTANT INFORMATION: All symmetrisations will be switched off!
NOSYMM: (Re-)initialisation of all symmetry stuff for point group C_1.


----------------------------------------------------------------------------------------

                                     Primitive cell                                     

  volume of cell :    3105.1711

  direct lattice vectors                    reciprocal lattice vectors
    16.300327718 -0.000812945 -0.002280319     0.061348460 -0.000005610  0.000000632
     0.002840881 30.676609622 -3.479838244     0.000002155  0.033010550  0.003635729
    -0.000128160 -0.692597133  6.288425918     0.000023439  0.018267109  0.161034218

  length of vectors
    16.300327898 30.873348704  6.326451717     0.061348460  0.033210163  0.162066984

  position of ions in fractional coordinates (direct lattice)
     0.935700589  0.961959777  0.137689842
     0.858793615  0.951693571  0.414146605
     0.936738056  0.793590640  0.907282654
     0.564136962  0.462000980  0.637707562
     0.640364098  0.303578729  0.130822977
     0.140969713  0.803998313  0.130625053
     0.640970915  0.451907003  0.914639932
     0.563211289  0.293537664  0.407262788
     0.359661493  0.452185654  0.414634289
     0.063987151  0.793686385  0.406843492
     0.140167903  0.952327627  0.914691133
     0.359028348  0.304038872  0.631076918
     0.859543763  0.803675020  0.630899496
     0.063299485  0.962200681  0.637388756
     0.436127991  0.293736245  0.907157192
     0.436592523  0.462206454  0.137763162
     0.787719522  0.025927800  0.097806241
     0.851910439  0.058047230  0.460056111
     0.853157129  0.697323483  0.585397023
     0.647514266  0.558253782  0.959896186
     0.646348125  0.197163417  0.085519400
     0.212126050  0.729770825  0.446329147
     0.711870768  0.526091258  0.597901734
     0.710660448  0.229310438  0.447641929
     0.288868279  0.526327767  0.097657320
     0.147581782  0.697561069  0.084556724
     0.146490366  0.058617972  0.959458899
     0.352476963  0.197613606  0.585160398
     0.789045504  0.729462884  0.947702766
     0.210686245  0.026460149  0.597215939
     0.287854821  0.229836626  0.946773272
     0.353117474  0.558507542  0.459861427
     0.751385028  0.070026706  0.099280828
     0.815499857  0.101705195  0.452674931
     0.816795329  0.653659196  0.593002550
     0.683924599  0.601912488  0.952461193
     0.682646391  0.153485287  0.093190385
     0.248305447  0.685661789  0.445266976
     0.748076649  0.570207748  0.599200938
     0.746855688  0.185181598  0.446404338
     0.252703839  0.570451855  0.098710582
     0.184085599  0.653917010  0.092066799
     0.182787320  0.102290090  0.951690384
     0.315858862  0.153988351  0.592426186
     0.752699334  0.685363448  0.946318570
     0.246966915  0.070564487  0.598490019
     0.251536672  0.185741690  0.945415294
     0.316844740  0.602186240  0.451995860
     0.702613720  0.075504471  0.926933475
     0.829763678  0.138079912  0.622048004
     0.831079240  0.617267461  0.423746438
     0.669725510  0.638290216  0.121865623
     0.668305613  0.117092963  0.923994610
     0.296877396  0.680180488  0.617989489
     0.796780689  0.575689375  0.426777831
     0.795507459  0.179671458  0.618938905
     0.203958186  0.575902724  0.926273098
     0.169725362  0.617488307  0.923035656
     0.168567672  0.138683260  0.120978229
     0.330219085  0.117568431  0.423363278
     0.704045156  0.679872762  0.118840388
     0.295809681  0.076007705  0.426250439
     0.202865811  0.180267114  0.117920108
     0.331042859  0.638578865  0.621323658
     0.873349791  0.981115841  0.279099972
     0.874429484  0.774299333  0.766031396
     0.626343896  0.481272189  0.779332599
     0.625413614  0.274192656  0.265849256
     0.126301220  0.774523142  0.265335839
     0.374396867  0.481530691  0.279283392
     0.125383508  0.981615834  0.779061712
     0.373736842  0.274579832  0.765851022
     0.766459722  0.106474533  0.274464172
     0.767727606  0.648906321  0.771147146
     0.732990169  0.606669867  0.774306095
     0.731749997  0.148719216  0.271289923
     0.233203360  0.649185858  0.270226181
     0.267858481  0.606941170  0.273643006
     0.231839856  0.107042716  0.773490961
     0.266615891  0.149270940  0.770344024
     0.037381770  0.877983154  0.022611306
     0.962588421  0.877833410  0.522555327
     0.462682691  0.377967842  0.522717999
     0.537550224  0.377862767  0.022775310
     0.368383299  0.122230417  0.288695332
     0.807259890  0.547001624  0.294381218
     0.806008698  0.208334285  0.751450759
     0.692177467  0.046828052  0.794383727
     0.693653348  0.708534106  0.251465073
     0.631802052  0.633591820  0.256960753
     0.131691919  0.622158822  0.788115629
     0.130699630  0.133978721  0.256139476
     0.869044028  0.621955637  0.288746346
     0.192477970  0.208931369  0.250559055
     0.193402828  0.547199146  0.793987991
     0.307235061  0.708855759  0.750595218
     0.368838970  0.633874176  0.756631532
     0.630304002  0.121780500  0.789029357
     0.867651625  0.133349001  0.757161077
     0.306362078  0.047311892  0.293915525
     0.682086081  0.454903254  0.052280873
     0.317745835  0.301167215  0.493861970
     0.465859143  0.474309602  0.007978750
     0.034744064  0.781452964  0.536255702
     0.181241352  0.955435797  0.052470102
     0.465451931  0.281511457  0.036510329
     0.964837758  0.974139865  0.007980995
     0.818311565  0.800689023  0.493457990
     0.034074348  0.974227097  0.507318740
     0.534969702  0.474102811  0.507774523
     0.681567499  0.300563616  0.993389152
     0.817639910  0.954601443  0.551643728
     0.533825634  0.281419034  0.536830345
     0.318490864  0.455207666  0.552149931
     0.182182517  0.801132544  0.993287812
     0.966118600  0.781457972  0.036810281
     0.957163041  0.923214017  0.185394904
     0.909516178  0.916592736  0.353549541
     0.957867906  0.832371143  0.859428800
     0.542826664  0.423246066  0.685531992
     0.590000545  0.338832648  0.191400983
     0.090355351  0.839137681  0.191481632
     0.590439618  0.416723116  0.853985734
     0.542189958  0.332350722  0.359541579
     0.410111206  0.416967751  0.354099638
     0.042649810  0.832488599  0.359499523
     0.089847935  0.917053596  0.854154910
     0.409685008  0.339164937  0.691697302
     0.910023940  0.838883306  0.691369064
     0.042208485  0.923432889  0.685461069
     0.457457178  0.332523527  0.859647654
     0.457794948  0.423435056  0.185682984
     0.834997088  0.022635134  0.281491436
     0.836283370  0.732743270  0.763939882
     0.664544916  0.522816082  0.781525456
     0.663429994  0.232603162  0.263830286
     0.164629498  0.732997287  0.262892275
     0.336249263  0.523087882  0.281298594
     0.163417281  0.023190577  0.780967847
     0.335390112  0.233061228  0.763441063
     0.777634361  0.993665979  0.947175211
     0.894545040  0.052402437  0.611903176
     0.895710337  0.702955301  0.433415783
     0.604798755  0.552627410  0.111605995
     0.603700281  0.202795332  0.933677601
     0.222425913  0.762093055  0.596517057
     0.722059860  0.493807907  0.447438603
     0.720800951  0.261581576  0.598190642
     0.278585374  0.494013776  0.947413880
     0.104766384  0.703172560  0.932969939
     0.103968578  0.052987001  0.111496788
     0.395370085  0.203212707  0.433746043
     0.778996780  0.761730547  0.098309060
     0.220783481  0.994182056  0.446668042
     0.277596398  0.262139661  0.097088185
     0.395590634  0.552869593  0.612011149

  ion indices of the primitive-cell ions
   primitive index   ion index
                 1           1
                 2           2
                 3           3
                 4           4
                 5           5
                 6           6
                 7           7
                 8           8
                 9           9
                10          10
                11          11
                12          12
                13          13
                14          14
                15          15
                16          16
                17          17
                18          18
                19          19
                20          20
                21          21
                22          22
                23          23
                24          24
                25          25
                26          26
                27          27
                28          28
                29          29
                30          30
                31          31
                32          32
                33          33
                34          34
                35          35
                36          36
                37          37
                38          38
                39          39
                40          40
                41          41
                42          42
                43          43
                44          44
                45          45
                46          46
                47          47
                48          48
                49          49
                50          50
                51          51
                52          52
                53          53
                54          54
                55          55
                56          56
                57          57
                58          58
                59          59
                60          60
                61          61
                62          62
                63          63
                64          64
                65          65
                66          66
                67          67
                68          68
                69          69
                70          70
                71          71
                72          72
                73          73
                74          74
                75          75
                76          76
                77          77
                78          78
                79          79
                80          80
                81          81
                82          82
                83          83
                84          84
                85          85
                86          86
                87          87
                88          88
                89          89
                90          90
                91          91
                92          92
                93          93
                94          94
                95          95
                96          96
                97          97
                98          98
                99          99
               100         100
               101         101
               102         102
               103         103
               104         104
               105         105
               106         106
               107         107
               108         108
               109         109
               110         110
               111         111
               112         112
               113         113
               114         114
               115         115
               116         116
               117         117
               118         118
               119         119
               120         120
               121         121
               122         122
               123         123
               124         124
               125         125
               126         126
               127         127
               128         128
               129         129
               130         130
               131         131
               132         132
               133         133
               134         134
               135         135
               136         136
               137         137
               138         138
               139         139
               140         140
               141         141
               142         142
               143         143
               144         144
               145         145
               146         146
               147         147
               148         148
               149         149
               150         150
               151         151
               152         152
               153         153
               154         154
               155         155
               156         156

----------------------------------------------------------------------------------------

 
 

Automatic generation of k-mesh.
 generate k-points for:    2    1    4
Space group operators:
 irot       det(A)        alpha          n_x          n_y          n_z        tau_x        tau_y        tau_z
    1     1.000000     0.000000     1.000000     0.000000     0.000000     0.000000     0.000000     0.000000
 
 Subroutine IBZKPT returns following result:
 ===========================================
 
 Found      6 irreducible k-points:
 
 Following reciprocal coordinates:
            Coordinates               Weight
  0.000000  0.000000  0.000000      1.000000
  0.500000  0.000000  0.000000      1.000000
  0.000000  0.000000  0.250000      2.000000
  0.500000  0.000000  0.250000      2.000000
  0.000000  0.000000  0.500000      1.000000
  0.500000  0.000000  0.500000      1.000000
 
 Following cartesian coordinates:
            Coordinates               Weight
  0.000000  0.000000  0.000000      1.000000
  0.030674 -0.000003  0.000000      1.000000
  0.000006  0.004567  0.040259      2.000000
  0.030680  0.004564  0.040259      2.000000
  0.000012  0.009134  0.080517      1.000000
  0.030686  0.009131  0.080517      1.000000
 


--------------------------------------------------------------------------------------------------------




 Dimension of arrays:
   k-points           NKPTS =      6   k-points in BZ     NKDIM =      6   number of bands    NBANDS=    400
   number of dos      NEDOS =    301   number of ions     NIONS =    156
   non local maximal  LDIM  =      6   non local SUM 2l+1 LMDIM =     18
   total plane-waves  NPLWV = 752640
   max r-space proj   IRMAX =   2315   max aug-charges    IRDMAX=   7423
   dimension x,y,z NGX =    98 NGY =  192 NGZ =   40
   dimension x,y,z NGXF=   196 NGYF=  384 NGZF=   80
   support grid    NGXF=   196 NGYF=  384 NGZF=   80
   ions per type =              80   4  32  24  16
   NGX,Y,Z   is equivalent  to a cutoff of   9.99, 10.34, 10.51 a.u.
   NGXF,Y,Z  is equivalent  to a cutoff of  19.99, 20.68, 21.02 a.u.

 SYSTEM =  flex_MOF                                
 POSCAR =  Zn_H                                    

 Startparameter for this run:
   NWRITE =      2    write-flag & timer
   PREC   = normal    normal or accurate (medium, high low for compatibility)
   ISTART =      0    job   : 0-new  1-cont  2-samecut
   ICHARG =      2    charge: 1-file 2-atom 10-const
   ISPIN  =      1    spin polarized calculation?
   LNONCOLLINEAR =      F non collinear calculations
   LSORBIT =      F    spin-orbit coupling
   INIWAV =      1    electr: 0-lowe 1-rand  2-diag
   LASPH  =      F    aspherical Exc in radial PAW
   METAGGA=      F    non-selfconsistent MetaGGA calc.

 Electronic Relaxation 1
   ENCUT  =  600.0 eV  44.10 Ry    6.64 a.u.  32.56 61.66 12.64*2*pi/ulx,y,z
   ENINI  =  600.0     initial cutoff
   ENAUG  =  644.9 eV  augmentation charge cutoff
   NELM   =     80;   NELMIN=  4; NELMDL=-12     # of ELM steps 
   EDIFF  = 0.1E-05   stopping-criterion for ELM
   LREAL  =      T    real-space projection
   NLSPLINE    = F    spline interpolate recip. space projectors
   LCOMPAT=      F    compatible to vasp.4.4
   GGA_COMPAT  = T    GGA compatible to vasp.4.4-vasp.4.6
   LMAXPAW     = -100 max onsite density
   LMAXMIX     =    2 max onsite mixed and CHGCAR
   VOSKOWN=      0    Vosko Wilk Nusair interpolation
   ROPT   =   -0.00050  -0.00050  -0.00050  -0.00050
   ROPT   =   -0.00050
 Ionic relaxation
   EDIFFG = -.1E-01   stopping-criterion for IOM
   NSW    =   1000    number of steps for IOM
   NBLOCK =      1;   KBLOCK =   1000    inner block; outer block 
   IBRION =      2    ionic relax: 0-MD 1-quasi-New 2-CG
   NFREE  =      1    steps in history (QN), initial steepest desc. (CG)
   ISIF   =      4    stress and relaxation
   IWAVPR =     11    prediction:  0-non 1-charg 2-wave 3-comb
   ISYM   =      0    0-nonsym 1-usesym 2-fastsym
   LCORR  =      T    Harris-Foulkes like correction to forces

   POTIM  = 0.5000    time-step for ionic-motion
   TEIN   =    0.0    initial temperature
   TEBEG  =    0.0;   TEEND  =   0.0 temperature during run
   SMASS  =  -3.00    Nose mass-parameter (am)
   estimated Nose-frequenzy (Omega)   =  0.10E-29 period in steps = 0.13E+47 mass=  -0.607E-26a.u.
   SCALEE = 1.0000    scale energy and forces
   NPACO  =    256;   APACO  = 16.0  distance and # of slots for P.C.
   PSTRESS=    0.0 pullay stress

  Mass of Ions in am
   POMASS =  12.01 65.39  1.00 14.00 16.00
  Ionic Valenz
   ZVAL   =   4.00 12.00  1.00  5.00  6.00
  Atomic Wigner-Seitz radii
   RWIGS  =  -1.00 -1.00 -1.00 -1.00 -1.00
  virtual crystal weights 
   VCA    =   1.00  1.00  1.00  1.00  1.00
   NELECT =     616.0000    total number of electrons
   NUPDOWN=      -1.0000    fix difference up-down

 DOS related values:
   EMIN   =  10.00;   EMAX   =-10.00  energy-range for DOS
   EFERMI =   0.00
   ISMEAR =     0;   SIGMA  =   0.05  broadening in eV -4-tet -1-fermi 0-gaus

 Electronic relaxation 2 (details)
   IALGO  =     48    algorithm
   LDIAG  =      T    sub-space diagonalisation (order eigenvalues)
   LSUBROT=      F    optimize rotation matrix (better conditioning)
   TURBO    =      0    0=normal 1=particle mesh
   IRESTART =      0    0=no restart 2=restart with 2 vectors
   NREBOOT  =      0    no. of reboots
   NMIN     =      0    reboot dimension
   EREF     =   0.00    reference energy to select bands
   IMIX   =      4    mixing-type and parameters
     AMIX     =   0.40;   BMIX     =  1.00
     AMIX_MAG =   1.60;   BMIX_MAG =  1.00
     AMIN     =   0.10
     WC   =   100.;   INIMIX=   1;  MIXPRE=   1;  MAXMIX= -45

 Intra band minimization:
   WEIMIN = 0.0010     energy-eigenvalue tresh-hold
   EBREAK =  0.63E-09  absolut break condition
   DEPER  =   0.30     relativ break condition  

   TIME   =   0.40     timestep for ELM

  volume/ion in A,a.u.               =      19.90       134.33
  Fermi-wavevector in a.u.,A,eV,Ry     =   0.954787  1.804286 12.403322  0.911618
  Thomas-Fermi vector in A             =   2.083566
 
 Write flags
   LWAVE        =      T    write WAVECAR
   LDOWNSAMPLE  =      F    k-point downsampling of WAVECAR
   LCHARG       =      T    write CHGCAR
   LVTOT        =      F    write LOCPOT, total local potential
   LVHAR        =      F    write LOCPOT, Hartree potential only
   LELF         =      F    write electronic localiz. function (ELF)
   LORBIT       =      0    0 simple, 1 ext, 2 COOP (PROOUT), +10 PAW based schemes


 Dipole corrections
   LMONO  =      F    monopole corrections only (constant potential shift)
   LDIPOL =      F    correct potential (dipole corrections)
   IDIPOL =      0    1-x, 2-y, 3-z, 4-all directions 
   EPSILON=  1.0000000 bulk dielectric constant

 Exchange correlation treatment:
   GGA     =    PE    GGA type
   LEXCH   =     8    internal setting for exchange type
   VOSKOWN=      0    Vosko Wilk Nusair interpolation
   LHFCALC =     F    Hartree Fock is set to
   LHFONE  =     F    Hartree Fock one center treatment
   AEXX    =    0.0000 exact exchange contribution

 Linear response parameters
   LEPSILON=     F    determine dielectric tensor
   LRPA    =     F    only Hartree local field effects (RPA)
   LNABLA  =     F    use nabla operator in PAW spheres
   LVEL    =     F    velocity operator in full k-point grid
   LINTERFAST=   F  fast interpolation
   KINTER  =     0    interpolate to denser k-point grid
   CSHIFT  =0.1000    complex shift for real part using Kramers Kronig
   OMEGAMAX=  -1.0    maximum frequency
   DEG_THRESHOLD= 0.2000000E-02 threshold for treating states as degnerate
   RTIME   =   -0.100 relaxation time in fs
  (WPLASMAI=    0.000 imaginary part of plasma frequency in eV, 0.658/RTIME)
   DFIELD  = 0.0000000 0.0000000 0.0000000 field for delta impulse in time
 
 Orbital magnetization related:
   ORBITALMAG=     F  switch on orbital magnetization
   LCHIMAG   =     F  perturbation theory with respect to B field
   DQ        =  0.001000  dq finite difference perturbation B field
   LLRAUG    =     F  two centre corrections for induced B field



--------------------------------------------------------------------------------------------------------


 conjugate gradient relaxation of ions
 charge density and potential will be updated during run
 non-spin polarized calculation
 RMM-DIIS sequential band-by-band
 perform sub-space diagonalisation
    before iterative eigenvector-optimisation
 modified Broyden-mixing scheme, WC =      100.0
 initial mixing is a Kerker type mixing with AMIX =  0.4000 and BMIX =      1.0000
 Hartree-type preconditioning will be used
 using additional bands           92
 real space projection scheme for non local part
 use partial core corrections
 calculate Harris-corrections to forces 
   (improved forces if not selfconsistent)
 use gradient corrections 
 use of overlap-Matrix (Vanderbilt PP)
 Gauss-broadening in eV      SIGMA  =   0.05


--------------------------------------------------------------------------------------------------------


  energy-cutoff  :      600.00
  volume of cell :     3105.17
      direct lattice vectors                 reciprocal lattice vectors
    16.300327718 -0.000812945 -0.002280319     0.061348460 -0.000005610  0.000000632
     0.002840881 30.676609622 -3.479838244     0.000002155  0.033010550  0.003635729
    -0.000128160 -0.692597133  6.288425918     0.000023439  0.018267109  0.161034218

  length of vectors
    16.300327898 30.873348704  6.326451717     0.061348460  0.033210163  0.162066984


 
 k-points in units of 2pi/SCALE and weight: read from INCAR                         
   0.00000000  0.00000000  0.00000000       0.125
   0.03067423 -0.00000280  0.00000032       0.125
   0.00000586  0.00456678  0.04025855       0.250
   0.03068009  0.00456397  0.04025887       0.250
   0.00001172  0.00913355  0.08051711       0.125
   0.03068595  0.00913075  0.08051743       0.125
 
 k-points in reciprocal lattice and weights: read from INCAR                         
   0.00000000  0.00000000  0.00000000       0.125
   0.50000000  0.00000000  0.00000000       0.125
   0.00000000  0.00000000  0.25000000       0.250
   0.50000000  0.00000000  0.25000000       0.250
   0.00000000  0.00000000  0.50000000       0.125
   0.50000000  0.00000000  0.50000000       0.125
 
 position of ions in fractional coordinates (direct lattice) 
   0.93570059  0.96195978  0.13768984
   0.85879361  0.95169357  0.41414661
   0.93673806  0.79359064  0.90728265
   0.56413696  0.46200098  0.63770756
   0.64036410  0.30357873  0.13082298
   0.14096971  0.80399831  0.13062505
   0.64097091  0.45190700  0.91463993
   0.56321129  0.29353766  0.40726279
   0.35966149  0.45218565  0.41463429
   0.06398715  0.79368639  0.40684349
   0.14016790  0.95232763  0.91469113
   0.35902835  0.30403887  0.63107692
   0.85954376  0.80367502  0.63089950
   0.06329949  0.96220068  0.63738876
   0.43612799  0.29373624  0.90715719
   0.43659252  0.46220645  0.13776316
   0.78771952  0.02592780  0.09780624
   0.85191044  0.05804723  0.46005611
   0.85315713  0.69732348  0.58539702
   0.64751427  0.55825378  0.95989619
   0.64634813  0.19716342  0.08551940
   0.21212605  0.72977083  0.44632915
   0.71187077  0.52609126  0.59790173
   0.71066045  0.22931044  0.44764193
   0.28886828  0.52632777  0.09765732
   0.14758178  0.69756107  0.08455672
   0.14649037  0.05861797  0.95945890
   0.35247696  0.19761361  0.58516040
   0.78904550  0.72946288  0.94770277
   0.21068625  0.02646015  0.59721594
   0.28785482  0.22983663  0.94677327
   0.35311747  0.55850754  0.45986143
   0.75138503  0.07002671  0.09928083
   0.81549986  0.10170520  0.45267493
   0.81679533  0.65365920  0.59300255
   0.68392460  0.60191249  0.95246119
   0.68264639  0.15348529  0.09319038
   0.24830545  0.68566179  0.44526698
   0.74807665  0.57020775  0.59920094
   0.74685569  0.18518160  0.44640434
   0.25270384  0.57045186  0.09871058
   0.18408560  0.65391701  0.09206680
   0.18278732  0.10229009  0.95169038
   0.31585886  0.15398835  0.59242619
   0.75269933  0.68536345  0.94631857
   0.24696691  0.07056449  0.59849002
   0.25153667  0.18574169  0.94541529
   0.31684474  0.60218624  0.45199586
   0.70261372  0.07550447  0.92693347
   0.82976368  0.13807991  0.62204800
   0.83107924  0.61726746  0.42374644
   0.66972551  0.63829022  0.12186562
   0.66830561  0.11709296  0.92399461
   0.29687740  0.68018049  0.61798949
   0.79678069  0.57568937  0.42677783
   0.79550746  0.17967146  0.61893890
   0.20395819  0.57590272  0.92627310
   0.16972536  0.61748831  0.92303566
   0.16856767  0.13868326  0.12097823
   0.33021909  0.11756843  0.42336328
   0.70404516  0.67987276  0.11884039
   0.29580968  0.07600770  0.42625044
   0.20286581  0.18026711  0.11792011
   0.33104286  0.63857887  0.62132366
   0.87334979  0.98111584  0.27909997
   0.87442948  0.77429933  0.76603140
   0.62634390  0.48127219  0.77933260
   0.62541361  0.27419266  0.26584926
   0.12630122  0.77452314  0.26533584
   0.37439687  0.48153069  0.27928339
   0.12538351  0.98161583  0.77906171
   0.37373684  0.27457983  0.76585102
   0.76645972  0.10647453  0.27446417
   0.76772761  0.64890632  0.77114715
   0.73299017  0.60666987  0.77430610
   0.73175000  0.14871922  0.27128992
   0.23320336  0.64918586  0.27022618
   0.26785848  0.60694117  0.27364301
   0.23183986  0.10704272  0.77349096
   0.26661589  0.14927094  0.77034402
   0.03738177  0.87798315  0.02261131
   0.96258842  0.87783341  0.52255533
   0.46268269  0.37796784  0.52271800
   0.53755022  0.37786277  0.02277531
   0.36838330  0.12223042  0.28869533
   0.80725989  0.54700162  0.29438122
   0.80600870  0.20833429  0.75145076
   0.69217747  0.04682805  0.79438373
   0.69365335  0.70853411  0.25146507
   0.63180205  0.63359182  0.25696075
   0.13169192  0.62215882  0.78811563
   0.13069963  0.13397872  0.25613948
   0.86904403  0.62195564  0.28874635
   0.19247797  0.20893137  0.25055906
   0.19340283  0.54719915  0.79398799
   0.30723506  0.70885576  0.75059522
   0.36883897  0.63387418  0.75663153
   0.63030400  0.12178050  0.78902936
   0.86765162  0.13334900  0.75716108
   0.30636208  0.04731189  0.29391552
   0.68208608  0.45490325  0.05228087
   0.31774584  0.30116721  0.49386197
   0.46585914  0.47430960  0.00797875
   0.03474406  0.78145296  0.53625570
   0.18124135  0.95543580  0.05247010
   0.46545193  0.28151146  0.03651033
   0.96483776  0.97413987  0.00798099
   0.81831156  0.80068902  0.49345799
   0.03407435  0.97422710  0.50731874
   0.53496970  0.47410281  0.50777452
   0.68156750  0.30056362  0.99338915
   0.81763991  0.95460144  0.55164373
   0.53382563  0.28141903  0.53683035
   0.31849086  0.45520767  0.55214993
   0.18218252  0.80113254  0.99328781
   0.96611860  0.78145797  0.03681028
   0.95716304  0.92321402  0.18539490
   0.90951618  0.91659274  0.35354954
   0.95786791  0.83237114  0.85942880
   0.54282666  0.42324607  0.68553199
   0.59000055  0.33883265  0.19140098
   0.09035535  0.83913768  0.19148163
   0.59043962  0.41672312  0.85398573
   0.54218996  0.33235072  0.35954158
   0.41011121  0.41696775  0.35409964
   0.04264981  0.83248860  0.35949952
   0.08984793  0.91705360  0.85415491
   0.40968501  0.33916494  0.69169730
   0.91002394  0.83888331  0.69136906
   0.04220848  0.92343289  0.68546107
   0.45745718  0.33252353  0.85964765
   0.45779495  0.42343506  0.18568298
   0.83499709  0.02263513  0.28149144
   0.83628337  0.73274327  0.76393988
   0.66454492  0.52281608  0.78152546
   0.66342999  0.23260316  0.26383029
   0.16462950  0.73299729  0.26289228
   0.33624926  0.52308788  0.28129859
   0.16341728  0.02319058  0.78096785
   0.33539011  0.23306123  0.76344106
   0.77763436  0.99366598  0.94717521
   0.89454504  0.05240244  0.61190318
   0.89571034  0.70295530  0.43341578
   0.60479875  0.55262741  0.11160599
   0.60370028  0.20279533  0.93367760
   0.22242591  0.76209306  0.59651706
   0.72205986  0.49380791  0.44743860
   0.72080095  0.26158158  0.59819064
   0.27858537  0.49401378  0.94741388
   0.10476638  0.70317256  0.93296994
   0.10396858  0.05298700  0.11149679
   0.39537009  0.20321271  0.43374604
   0.77899678  0.76173055  0.09830906
   0.22078348  0.99418206  0.44666804
   0.27759640  0.26213966  0.09708818
   0.39559063  0.55286959  0.61201115
 
 position of ions in cartesian coordinates  (Angst):
  15.25494141 29.41354028 -2.48374575
  14.00126793 28.90719724 -0.70936776
  15.27127552 23.71552739  2.94167664
   9.19684812 13.73049067  2.40120167
  10.43899033  9.22163797 -0.23519451
   2.30011984 24.57335726 -1.97667957
  10.44920256 13.22897664  4.17762056
   9.18131030  8.72221344  1.53829398
   5.86383168 13.58405588  1.03304394
   1.04521416 24.06577675 -0.20364099
   2.28737098 28.58055644  2.43770170
   5.85306259  8.88950786  2.90965565
  14.01304731 24.21636691  1.16874563
   1.03445416 29.07554959  0.65972490
   7.10974738  8.38218310  4.68144167
   7.11789662 14.08315765 -0.74308583
  12.84014748  0.72699630  0.52302650
  13.88652529  1.46136613  2.68909117
  13.90864678 20.98538240  1.25270742
  10.55615764 16.45998561  4.09212666
  10.53623542  5.98854924 -0.14978827
   3.45974013 22.07759598  0.26673964
  11.60514475 15.72401240  1.92752499
  11.58459228  6.72385356  2.01537934
   4.71013034 16.07807941 -1.21808338
   2.40760226 21.34012488 -1.89600752
   2.38788454  1.13356308  5.82917110
   5.74597641  5.65654849  2.99127067
  12.86365115 21.72043044  3.41934652
   3.43425347  0.39790633  3.66299072
   4.69265952  6.39464200  5.15326290
   5.75745827 16.81433207  0.94748339
  12.24800841  2.07880946  0.37892513
  13.29314584  2.80578626  2.49083554
  13.31581251 19.64067210  1.45256179
  11.14978300 17.80440654  3.89336399
  11.12778398  4.64330990  0.05036020
   4.04935098 20.72518654  0.41347006
  12.19543764 17.07642749  1.78209413
  12.17446134  5.37095808  2.16107553
   4.12076332 17.43095678 -1.36492225
   3.00250149 19.99604200 -1.69698995
   2.97966185  2.47862652  5.62826469
   5.14896450  4.31327107  3.18885337
  12.27107157 20.36859752  3.56418389
   4.02576541  1.74996597  3.51744399
   4.10053669  5.04292891  5.29824942
   5.16632591 18.15972359  0.74610927
  11.45292960  1.67365852  5.56460696
  13.52573242  3.80432034  3.42931490
  13.54856325 18.64151173  0.51481204
  10.91854298 19.49563154 -1.45633095
  10.89381473  2.95151579  5.40148313
   4.84105196 20.43737220  1.51858607
  12.98936712 17.36396537  0.67863796
  12.96746338  5.08238915  3.26510983
   3.32610263 17.02504313  3.82028634
   2.76821494 18.30301791  3.65529489
   2.74808677  4.17040600  0.27778293
   5.38295904  3.31311223  2.25241648
  11.47808298 20.77331044 -1.62013371
   4.82195604  2.03619838  2.41527525
   3.30727621  5.44814785  0.11376886
   5.39784159 19.15883845  1.68424176
  14.23863927 29.90329381 -1.66101644
  14.25558867 23.22161636  2.12070127
  10.21087813 14.22352635  3.22459768
  10.19519175  8.22666622  0.71620112
   2.06091760 23.57587056 -1.02695849
   6.10412381 14.57799379  0.07975026
   2.04648109 29.57296789  1.48292163
   6.09271491  7.89244827  3.85965178
  12.49381195  3.07556149  1.35368569
  12.51595621 19.37152748  2.58946200
  11.94960421 18.07369661  2.75638206
  11.92815249  4.37371185  1.18679914
   3.80310083 19.72747369 -0.56029624
   4.36787020 18.42915521 -0.39188412
   3.77927059  2.74780153  4.49102060
   4.34625174  4.04537153  4.32420463
   0.61182645 26.91785555 -2.91313507
  15.69293357 26.56624997  0.22913718
   7.54288626 11.23236282  1.97075139
   8.76331536 11.57533747 -1.17290625
   6.00507875  3.54936577  1.38925709
  13.16011701 16.57561144 -0.05412350
  13.13870146  5.86988166  3.99863486
  11.28275077  0.88577529  4.83089078
  11.30875754 21.56069627 -0.88584635
  10.30034752 19.25796503 -0.59035910
   2.14828790 18.53976961  2.79069439
   2.13079459  3.93250522  1.14419180
  14.16743236 18.87879889 -0.35052670
   3.13801543  6.23561309  0.84813578
   3.15398224 16.23614355  3.08832913
   5.00994975 21.22518155  2.25265845
   6.01389988 18.92076998  2.55140067
  10.27440664  3.18882098  4.53653893
  14.14328762  3.56558230  4.29533987
   4.99389901  1.24755433  1.68292967
  11.11951228 13.91812546 -1.25578072
   5.18015353  8.89648339  2.05687666
   7.59500313 14.54430574 -1.60140922
   0.56849091 23.60089012  0.65279511
   2.95700099 29.27304299 -2.99522097
   7.58781407  8.61015172 -0.75108321
  15.72993805 29.87699639 -3.34186140
  13.34095810 24.21999175  0.31493972
   0.55812568 29.53458914 -0.19999410
   8.72146326 14.19174877  1.54208148
  11.11050015  8.53170017  5.19938713
  13.33043969 28.90120426  0.14524763
   8.70226345  8.26074070  2.39530785
   5.19272788 13.58155150  1.88737863
   2.97178335 23.88793392  3.45798972
  15.75026510 23.94620105 -2.49007167
  15.60467022 28.19189391 -2.04897596
  14.82797039 27.87235076 -0.96839835
  15.61581530 24.93830799  2.50575316
   8.84936705 12.50851557  2.83685148
   9.61814029 10.26119347  0.02318271
   1.47518119 25.60920598 -1.71615138
   9.62543368 12.19170427  3.91875060
   8.83877209  9.94593513  1.10318746
   6.68608624 12.54557514  0.77481383
   0.69752481 25.28890477 -0.63633681
   1.46704655 27.54043689  2.17988682
   6.67887476  9.92502974  3.16851391
  14.83598302 25.25451566  1.42636979
   0.69054765 27.85300756  1.09697782
   7.45753640  9.60493303  4.24765936
   7.46338681 12.86057626 -0.30687573
  13.61075441  0.49873020  1.68946738
  13.63367672 21.94829682  2.25224431
  10.83368502 15.49640234  3.09373416
  10.81475331  6.95220897  0.84814300
   2.68556344 22.30365935 -0.89790880
   5.48242317 15.85146279 -0.05210260
   2.66372103  0.17037934  4.82998635
   5.46753299  6.62049855  3.98906240
  12.67839642 29.82566033  2.49667101
  14.58144775  1.18299952  3.66351594
  14.60231349 21.26337467  0.27728980
   9.85997355 16.87494566 -1.22260710
   9.84096888  5.57392001  5.16429084
   3.62770383 22.96510433  1.09868556
  11.77115786 14.83787071  1.09366634
  11.74995817  7.60954478  2.84977231
   4.54231490 14.49826513  4.23801870
   1.70960446 20.92469265  3.41974668
   1.69485813  1.54815466  0.51651602
   6.44518367  5.93314422  2.01953094
  12.70005418 23.29858878 -2.03426621
   3.60161020 30.18859433 -0.65125730
   4.52564452  7.97408739 -0.30230477
   6.44974917 16.53596593  1.92378795
 


--------------------------------------------------------------------------------------------------------


 k-point  1 :   0.0000 0.0000 0.0000  plane waves:  103707
 k-point  2 :   0.5000 0.0000 0.0000  plane waves:  103674
 k-point  3 :   0.0000 0.0000 0.2500  plane waves:  103636
 k-point  4 :   0.5000 0.0000 0.2500  plane waves:  103607
 k-point  5 :   0.0000 0.0000 0.5000  plane waves:  103614
 k-point  6 :   0.5000 0.0000 0.5000  plane waves:  103520

 maximum and minimum number of plane-waves per node :     25991    25828

 maximum number of plane-waves:    103707
 maximum index in each direction: 
   IXMAX=   32   IYMAX=   61   IZMAX=   12
   IXMIN=  -33   IYMIN=  -61   IZMIN=  -13


 real space projection operators:
  total allocation   :      12306.11 KBytes
  max/ min on nodes  :       3122.25       3032.16


 parallel 3D FFT for wavefunctions:
    minimum data exchange during FFTs selected (reduces bandwidth)
 parallel 3D FFT for charge:
    minimum data exchange during FFTs selected (reduces bandwidth)


 total amount of memory used by VASP MPI-rank0   127515. kBytes
=======================================================================

   base      :      30000. kBytes
   nonlr-proj:       6269. kBytes
   fftplans  :       9881. kBytes
   grid      :      17783. kBytes
   one-center:        606. kBytes
   wavefun   :      62976. kBytes
 
     INWAV:  cpu time    0.0003: real time    0.0003
 Broyden mixing: mesh for mixing (old mesh)
   NGX = 65   NGY =123   NGZ = 25
  (NGX  =196   NGY  =384   NGZ  = 80)
  gives a total of 199875 points

 initial charge density was supplied:
 charge density of overlapping atoms calculated
 number of electron     616.0000000 magnetization 
 keeping initial charge density in first step


--------------------------------------------------------------------------------------------------------


 Maximum index for non-local projection operator          640
 Maximum index for augmentation-charges          694 (set IRDMAX)


--------------------------------------------------------------------------------------------------------


 First call to EWALD:  gamma=   0.121
 Maximum number of real-space cells 3x 2x 6
 Maximum number of reciprocal cells 3x 5x 1

    FEWALD:  cpu time    0.0176: real time    0.0176


--------------------------------------- Iteration      1(   1)  ---------------------------------------


    POTLOK:  cpu time    0.1504: real time    0.1778
    SETDIJ:  cpu time    0.0315: real time    0.0316
    EDDIAG:  cpu time    4.4649: real time    4.5251
  RMM-DIIS:  cpu time    5.8893: real time    5.8968
    ORTHCH:  cpu time    1.0255: real time    1.0268
       DOS:  cpu time    0.0041: real time    0.0047
    --------------------------------------------
      LOOP:  cpu time   11.5657: real time   11.6629

 eigenvalue-minimisations  :  2400
 total energy-change (2. order) : 0.7665740E+04  (-0.2352692E+05)
 number of electron     616.0000000 magnetization 
 augmentation part      616.0000000 magnetization 

 Free energy of the ion-electron system (eV)
  ---------------------------------------------------
  alpha Z        PSCENC =       622.15722181
  Ewald energy   TEWEN  =     25357.29301331
  -Hartree energ DENC   =    -52982.18555022
  -exchange      EXHF   =         0.00000000
  -V(xc)+E(xc)   XCENC  =      2272.64961667
  PAW double counting   =     25034.14638475   -25847.60581054
  entropy T*S    EENTRO =        -0.06585775
  eigenvalues    EBANDS =       775.67075961
  atomic energy  EATOM  =     32433.67991533
  Solvation  Ediel_sol  =         0.00000000
  ---------------------------------------------------
  free energy    TOTEN  =      7665.73969297 eV

  energy without entropy =     7665.80555072  energy(sigma->0) =     7665.77262185


--------------------------------------------------------------------------------------------------------




--------------------------------------- Iteration      1(   2)  ---------------------------------------


    EDDIAG:  cpu time    4.3815: real time    4.3871
  RMM-DIIS:  cpu time    5.8037: real time    5.8109
    ORTHCH:  cpu time    1.0272: real time    1.0283
       DOS:  cpu time    0.0031: real time    0.0031
    --------------------------------------------
      LOOP:  cpu time   11.2154: real time   11.2294

 eigenvalue-minimisations  :  2400
 total energy-change (2. order) :-0.4818157E+04  (-0.6754899E+04)
 number of electron     616.0000000 magnetization 
 augmentation part      616.0000000 magnetization 

 Free energy of the ion-electron system (eV)
  ---------------------------------------------------
  alpha Z        PSCENC =       622.15722181
  Ewald energy   TEWEN  =     25357.29301331
  -Hartree energ DENC   =    -52982.18555022
  -exchange      EXHF   =         0.00000000
  -V(xc)+E(xc)   XCENC  =      2272.64961667
  PAW double counting   =     25034.14638475   -25847.60581054
  entropy T*S    EENTRO =        -0.06758232
  eigenvalues    EBANDS =     -4042.48453792
  atomic energy  EATOM  =     32433.67991533
  Solvation  Ediel_sol  =         0.00000000
  ---------------------------------------------------
  free energy    TOTEN  =      2847.58267086 eV

  energy without entropy =     2847.65025318  energy(sigma->0) =     2847.61646202


--------------------------------------------------------------------------------------------------------




--------------------------------------- Iteration      1(   3)  ---------------------------------------


    EDDIAG:  cpu time    4.3694: real time    4.3753
  RMM-DIIS:  cpu time    5.8044: real time    5.8108
    ORTHCH:  cpu time    1.0360: real time    1.0370
       DOS:  cpu time    0.0028: real time    0.0028
    --------------------------------------------
      LOOP:  cpu time   11.2126: real time   11.2258

 eigenvalue-minimisations  :  2400
 total energy-change (2. order) :-0.2126000E+04  (-0.2797515E+04)
 number of electron     616.0000000 magnetization 
 augmentation part      616.0000000 magnetization 

 Free energy of the ion-electron system (eV)
  ---------------------------------------------------
  alpha Z        PSCENC =       622.15722181
  Ewald energy   TEWEN  =     25357.29301331
  -Hartree energ DENC   =    -52982.18555022
  -exchange      EXHF   =         0.00000000
  -V(xc)+E(xc)   XCENC  =      2272.64961667
  PAW double counting   =     25034.14638475   -25847.60581054
  entropy T*S    EENTRO =        -0.05935416
  eigenvalues    EBANDS =     -6168.49297603
  atomic energy  EATOM  =     32433.67991533
  Solvation  Ediel_sol  =         0.00000000
  ---------------------------------------------------
  free energy    TOTEN  =       721.58246091 eV

  energy without entropy =      721.64181507  energy(sigma->0) =      721.61213799


--------------------------------------------------------------------------------------------------------




--------------------------------------- Iteration      1(   4)  ---------------------------------------


    EDDIAG:  cpu time    4.3787: real time    4.3843
  RMM-DIIS:  cpu time    5.7963: real time    5.8027
    ORTHCH:  cpu time    1.0274: real time    1.0293
       DOS:  cpu time    0.0028: real time    0.0028
    --------------------------------------------
      LOOP:  cpu time   11.2052: real time   11.2191

 eigenvalue-minimisations  :  2400
 total energy-change (2. order) :-0.1242212E+04  (-0.1226868E+04)
 number of electron     616.0000000 magnetization 
 augmentation part      616.0000000 magnetization 

 Free energy of the ion-electron system (eV)
  ---------------------------------------------------
  alpha Z        PSCENC =       622.15722181
  Ewald energy   TEWEN  =     25357.29301331
  -Hartree energ DENC   =    -52982.18555022
  -exchange      EXHF   =         0.00000000
  -V(xc)+E(xc)   XCENC  =      2272.64961667
  PAW double counting   =     25034.14638475   -25847.60581054
  entropy T*S    EENTRO =        -0.02566600
  eigenvalues    EBANDS =     -7410.73836402
  atomic energy  EATOM  =     32433.67991533
  Solvation  Ediel_sol  =         0.00000000
  ---------------------------------------------------
  free energy    TOTEN  =      -520.62923892 eV

  energy without entropy =     -520.60357292  energy(sigma->0) =     -520.61640592


--------------------------------------------------------------------------------------------------------




--------------------------------------- Iteration      1(   5)  ---------------------------------------


    EDDIAG:  cpu time    4.3709: real time    4.3762
  RMM-DIIS:  cpu time    5.8008: real time    5.8085
    ORTHCH:  cpu time    1.0369: real time    1.0380
       DOS:  cpu time    0.0028: real time    0.0028
    --------------------------------------------
      LOOP:  cpu time   11.2115: real time   11.2254

 eigenvalue-minimisations  :  2400
 total energy-change (2. order) :-0.4758205E+03  (-0.4239055E+03)
 number of electron     616.0000000 magnetization 
 augmentation part      616.0000000 magnetization 

 Free energy of the ion-electron system (eV)
  ---------------------------------------------------
  alpha Z        PSCENC =       622.15722181
  Ewald energy   TEWEN  =     25357.29301331
  -Hartree energ DENC   =    -52982.18555022
  -exchange      EXHF   =         0.00000000
  -V(xc)+E(xc)   XCENC  =      2272.64961667
  PAW double counting   =     25034.14638475   -25847.60581054
  entropy T*S    EENTRO =        -0.01182051
  eigenvalues    EBANDS =     -7886.57266587
  atomic energy  EATOM  =     32433.67991533
  Solvation  Ediel_sol  =         0.00000000
  ---------------------------------------------------
  free energy    TOTEN  =      -996.44969528 eV

  energy without entropy =     -996.43787476  energy(sigma->0) =     -996.44378502


--------------------------------------------------------------------------------------------------------




--------------------------------------- Iteration      1(   6)  ---------------------------------------


    EDDIAG:  cpu time    4.3943: real time    4.3997
  RMM-DIIS:  cpu time    5.7982: real time    5.8046
    ORTHCH:  cpu time    1.0284: real time    1.0295
       DOS:  cpu time    0.0022: real time    0.0022
    --------------------------------------------
      LOOP:  cpu time   11.2231: real time   11.2361

 eigenvalue-minimisations  :  2400
 total energy-change (2. order) :-0.1603760E+03  (-0.1393783E+03)
 number of electron     616.0000000 magnetization 
 augmentation part      616.0000000 magnetization 

 Free energy of the ion-electron system (eV)
  ---------------------------------------------------
  alpha Z        PSCENC =       622.15722181
  Ewald energy   TEWEN  =     25357.29301331
  -Hartree energ DENC   =    -52982.18555022
  -exchange      EXHF   =         0.00000000
  -V(xc)+E(xc)   XCENC  =      2272.64961667
  PAW double counting   =     25034.14638475   -25847.60581054
  entropy T*S    EENTRO =        -0.00000000
  eigenvalues    EBANDS =     -8046.96049787
  atomic energy  EATOM  =     32433.67991533
  Solvation  Ediel_sol  =         0.00000000
  ---------------------------------------------------
  free energy    TOTEN  =     -1156.82570676 eV

  energy without entropy =    -1156.82570676  energy(sigma->0) =    -1156.82570676


--------------------------------------------------------------------------------------------------------




--------------------------------------- Iteration      1(   7)  ---------------------------------------


    EDDIAG:  cpu time    4.3666: real time    4.3722
  RMM-DIIS:  cpu time    5.8050: real time    5.8127
    ORTHCH:  cpu time    1.0411: real time    1.0422
       DOS:  cpu time    0.0014: real time    0.0013
    --------------------------------------------
      LOOP:  cpu time   11.2141: real time   11.2284

 eigenvalue-minimisations  :  2400
 total energy-change (2. order) :-0.5150176E+02  (-0.4757410E+02)
 number of electron     616.0000000 magnetization 
 augmentation part      616.0000000 magnetization 

 Free energy of the ion-electron system (eV)
  ---------------------------------------------------
  alpha Z        PSCENC =       622.15722181
  Ewald energy   TEWEN  =     25357.29301331
  -Hartree energ DENC   =    -52982.18555022
  -exchange      EXHF   =         0.00000000
  -V(xc)+E(xc)   XCENC  =      2272.64961667
  PAW double counting   =     25034.14638475   -25847.60581054
  entropy T*S    EENTRO =        -0.00000000
  eigenvalues    EBANDS =     -8098.46226007
  atomic energy  EATOM  =     32433.67991533
  Solvation  Ediel_sol  =         0.00000000
  ---------------------------------------------------
  free energy    TOTEN  =     -1208.32746896 eV

  energy without entropy =    -1208.32746896  energy(sigma->0) =    -1208.32746896


--------------------------------------------------------------------------------------------------------




--------------------------------------- Iteration      1(   8)  ---------------------------------------


    EDDIAG:  cpu time    4.3714: real time    4.3770
  RMM-DIIS:  cpu time    5.7897: real time    5.8013
    ORTHCH:  cpu time    1.0332: real time    1.0345
       DOS:  cpu time    0.0013: real time    0.0013
    --------------------------------------------
      LOOP:  cpu time   11.1957: real time   11.2141

 eigenvalue-minimisations  :  2400
 total energy-change (2. order) :-0.1900060E+02  (-0.1688383E+02)
 number of electron     616.0000000 magnetization 
 augmentation part      616.0000000 magnetization 

 Free energy of the ion-electron system (eV)
  ---------------------------------------------------
  alpha Z        PSCENC =       622.15722181
  Ewald energy   TEWEN  =     25357.29301331
  -Hartree energ DENC   =    -52982.18555022
  -exchange      EXHF   =         0.00000000
  -V(xc)+E(xc)   XCENC  =      2272.64961667
  PAW double counting   =     25034.14638475   -25847.60581054
  entropy T*S    EENTRO =        -0.00000000
  eigenvalues    EBANDS =     -8117.46285886
  atomic energy  EATOM  =     32433.67991533
  Solvation  Ediel_sol  =         0.00000000
  ---------------------------------------------------
  free energy    TOTEN  =     -1227.32806775 eV

  energy without entropy =    -1227.32806775  energy(sigma->0) =    -1227.32806775


--------------------------------------------------------------------------------------------------------




--------------------------------------- Iteration      1(   9)  ---------------------------------------


[...]
   -.770E+02 0.738E+02 -.570E+02   0.592E+02 -.608E+02 0.676E+02   0.178E+02 -.130E+02 -.106E+02   0.112E-04 -.218E-04 0.131E-05
   0.377E+03 0.402E+02 -.489E+02   -.380E+03 -.607E+02 0.604E+02   0.279E+01 0.205E+02 -.116E+02   -.154E-04 0.223E-04 -.115E-04
   -.785E+02 0.735E+02 -.577E+02   0.606E+02 -.605E+02 0.683E+02   0.179E+02 -.130E+02 -.107E+02   0.862E-05 -.207E-04 0.253E-05
   -.377E+03 0.398E+02 -.493E+02   0.380E+03 -.603E+02 0.609E+02   -.281E+01 0.205E+02 -.116E+02   0.152E-04 0.228E-04 -.122E-04
   0.378E+03 -.426E+02 0.482E+02   -.381E+03 0.631E+02 -.597E+02   0.277E+01 -.206E+02 0.115E+02   -.156E-04 -.229E-04 0.120E-04
   0.377E+03 -.403E+02 0.487E+02   -.380E+03 0.608E+02 -.602E+02   0.283E+01 -.205E+02 0.115E+02   -.136E-04 -.215E-04 0.953E-05
   -.778E+02 -.736E+02 0.571E+02   0.601E+02 0.606E+02 -.678E+02   0.178E+02 0.131E+02 0.107E+02   0.953E-05 0.204E-04 -.247E-05
   0.777E+02 0.732E+02 -.574E+02   -.599E+02 -.603E+02 0.680E+02   -.179E+02 -.129E+02 -.107E+02   -.107E-04 -.215E-04 0.139E-05
   0.771E+02 -.737E+02 0.573E+02   -.593E+02 0.607E+02 -.679E+02   -.179E+02 0.130E+02 0.107E+02   -.977E-05 0.217E-04 -.147E-05
   0.174E+03 -.124E+02 -.958E+01   -.176E+03 0.126E+02 0.101E+02   0.134E+01 -.130E+00 -.547E+00   0.288E-04 -.307E-04 -.560E-05
   0.173E+03 0.136E+02 0.949E+01   -.174E+03 -.138E+02 -.100E+02   0.130E+01 0.147E+00 0.517E+00   0.307E-04 0.307E-04 0.521E-05
   -.174E+03 -.126E+02 -.955E+01   0.175E+03 0.128E+02 0.101E+02   -.132E+01 -.148E+00 -.534E+00   -.301E-04 -.332E-04 -.525E-05
   -.174E+03 0.134E+02 0.971E+01   0.175E+03 -.136E+02 -.102E+02   -.132E+01 0.151E+00 0.534E+00   -.314E-04 0.324E-04 0.439E-05
   -.174E+03 0.127E+02 0.965E+01   0.175E+03 -.129E+02 -.102E+02   -.131E+01 0.152E+00 0.532E+00   -.300E-04 0.290E-04 0.500E-05
   0.173E+03 -.135E+02 -.931E+01   -.174E+03 0.137E+02 0.980E+01   0.126E+01 -.175E+00 -.486E+00   0.306E-04 -.311E-04 -.593E-05
   -.173E+03 -.139E+02 -.944E+01   0.174E+03 0.141E+02 0.994E+01   -.127E+01 -.170E+00 -.500E+00   -.315E-04 -.319E-04 -.566E-05
   0.174E+03 0.126E+02 0.956E+01   -.176E+03 -.128E+02 -.101E+02   0.132E+01 0.148E+00 0.537E+00   0.305E-04 0.320E-04 0.461E-05
   0.413E+03 0.267E+03 0.206E+03   -.420E+03 -.306E+03 -.243E+03   0.713E+01 0.393E+02 0.369E+02   -.178E-05 -.716E-04 -.267E-04
   -.125E+03 -.114E+03 -.243E+03   0.156E+03 0.102E+03 0.286E+03   -.309E+02 0.125E+02 -.433E+02   0.190E-04 -.609E-05 0.365E-04
   -.126E+03 0.115E+03 0.243E+03   0.157E+03 -.102E+03 -.287E+03   -.308E+02 -.125E+02 0.433E+02   0.210E-04 0.591E-05 -.375E-04
   0.125E+03 -.115E+03 -.243E+03   -.156E+03 0.102E+03 0.286E+03   0.309E+02 0.125E+02 -.432E+02   -.214E-04 -.583E-05 0.392E-04
   0.126E+03 0.115E+03 0.243E+03   -.157E+03 -.102E+03 -.286E+03   0.309E+02 -.125E+02 0.433E+02   -.208E-04 0.507E-05 -.390E-04
   -.415E+03 -.268E+03 -.206E+03   0.422E+03 0.307E+03 0.242E+03   -.729E+01 -.394E+02 -.368E+02   0.152E-05 0.731E-04 0.268E-04
   -.414E+03 0.267E+03 0.206E+03   0.421E+03 -.306E+03 -.242E+03   -.720E+01 0.394E+02 0.369E+02   0.193E-05 -.772E-04 -.312E-04
   -.413E+03 -.265E+03 -.205E+03   0.421E+03 0.305E+03 0.242E+03   -.716E+01 -.393E+02 -.369E+02   0.873E-06 0.758E-04 0.309E-04
   0.414E+03 0.266E+03 0.205E+03   -.421E+03 -.306E+03 -.242E+03   0.727E+01 0.394E+02 0.368E+02   0.705E-07 -.724E-04 -.266E-04
   0.125E+03 0.115E+03 0.243E+03   -.156E+03 -.102E+03 -.286E+03   0.310E+02 -.125E+02 0.432E+02   -.185E-04 0.539E-05 -.352E-04
   0.126E+03 -.115E+03 -.243E+03   -.157E+03 0.103E+03 0.287E+03   0.308E+02 0.125E+02 -.433E+02   -.217E-04 -.547E-05 0.402E-04
   -.125E+03 0.115E+03 0.243E+03   0.156E+03 -.103E+03 -.286E+03   -.311E+02 -.125E+02 0.432E+02   0.195E-04 0.551E-05 -.352E-04
   0.413E+03 -.265E+03 -.205E+03   -.420E+03 0.305E+03 0.242E+03   0.709E+01 -.393E+02 -.369E+02   0.411E-06 0.736E-04 0.299E-04
   -.413E+03 0.265E+03 0.205E+03   0.420E+03 -.304E+03 -.242E+03   -.712E+01 0.393E+02 0.369E+02   0.160E-06 -.744E-04 -.303E-04
   0.414E+03 -.268E+03 -.206E+03   -.422E+03 0.307E+03 0.243E+03   0.725E+01 -.394E+02 -.368E+02   -.233E-05 0.757E-04 0.283E-04
   -.125E+03 -.114E+03 -.243E+03   0.156E+03 0.102E+03 0.287E+03   -.308E+02 0.125E+02 -.434E+02   0.192E-04 -.427E-05 0.366E-04
 -----------------------------------------------------------------------------------------------
   0.108E+00 -.100E-01 0.344E+00   -.136E-11 0.136E-11 0.398E-12   -.977E-01 -.292E-02 -.353E+00   -.682E-05 -.654E-05 0.352E-05
 
 
 POSITION                                       TOTAL-FORCE (eV/Angst)
 -----------------------------------------------------------------------------------
     15.25494     29.41354     -2.48375        -0.002535      0.000047      0.001293
     14.00127     28.90720     -0.70937         0.000588      0.000218     -0.000349
     15.27128     23.71553      2.94168        -0.001031     -0.001294     -0.001802
      9.19685     13.73049      2.40120        -0.003495     -0.004256      0.001318
     10.43899      9.22164     -0.23519         0.002408     -0.003257      0.003091
      2.30012     24.57336     -1.97668         0.001881      0.000440      0.001255
     10.44920     13.22898      4.17762         0.001452     -0.000340     -0.000523
      9.18131      8.72221      1.53829        -0.003840      0.003051      0.000011
      5.86383     13.58406      1.03304        -0.002043      0.001386     -0.003528
      1.04521     24.06578     -0.20364         0.000107      0.003976     -0.001201
      2.28737     28.58056      2.43770         0.001462      0.000273     -0.001824
      5.85306      8.88951      2.90966        -0.003128      0.000148      0.000808
     14.01305     24.21637      1.16875        -0.001354      0.001915      0.002311
      1.03445     29.07555      0.65972        -0.000923     -0.005548      0.000123
      7.10975      8.38218      4.68144         0.000073      0.003220     -0.000159
      7.11790     14.08316     -0.74309         0.002228     -0.005462      0.002298
     12.84015      0.72700      0.52303        -0.005405     -0.000192      0.005771
     13.88653      1.46137      2.68909         0.000798     -0.001656      0.003396
     13.90865     20.98538      1.25271         0.002925     -0.001843      0.001868
     10.55616     16.45999      4.09213        -0.002337      0.000766      0.001236
     10.53624      5.98855     -0.14979        -0.000801     -0.002338      0.006551
      3.45974     22.07760      0.26674        -0.001141      0.000736     -0.004788
     11.60514     15.72401      1.92752        -0.000717     -0.000912      0.004521
     11.58459      6.72385      2.01538         0.003715     -0.003937     -0.005092
      4.71013     16.07808     -1.21808        -0.001521      0.002167      0.005385
      2.40760     21.34012     -1.89601         0.000699     -0.003227      0.001232
      2.38788      1.13356      5.82917        -0.000771      0.006282     -0.003098
      5.74598      5.65655      2.99127        -0.006524     -0.000768      0.004972
     12.86365     21.72043      3.41935        -0.006121     -0.002015     -0.006649
      3.43425      0.39791      3.66299        -0.000330      0.000398      0.002721
      4.69266      6.39464      5.15326        -0.001974     -0.000261     -0.004372
      5.75746     16.81433      0.94748         0.000148      0.007522     -0.003475
     12.24801      2.07881      0.37893         0.002611      0.000256      0.001118
     13.29315      2.80579      2.49084         0.001511      0.002373     -0.005941
     13.31581     19.64067      1.45256         0.003539     -0.000149     -0.000684
     11.14978     17.80441      3.89336         0.001052      0.001102      0.000416
     11.12778      4.64331      0.05036        -0.003733     -0.000662     -0.001318
      4.04935     20.72519      0.41347         0.001535     -0.002205     -0.000269
     12.19544     17.07643      1.78209         0.000638      0.004623      0.000951
     12.17446      5.37096      2.16108         0.001589     -0.000836      0.004110
      4.12076     17.43096     -1.36492        -0.000740     -0.002316      0.000686
      3.00250     19.99604     -1.69699        -0.000942     -0.000258      0.000629
      2.97966      2.47863      5.62826         0.002294      0.002507     -0.002728
      5.14896      4.31327      3.18885         0.001852     -0.001500      0.001400
     12.27107     20.36860      3.56418         0.002168      0.001264      0.002247
      4.02577      1.74997      3.51744         0.000239     -0.001451      0.000682
      4.10054      5.04293      5.29825         0.001327     -0.001152     -0.000591
      5.16633     18.15972      0.74611        -0.002716     -0.000180      0.001791
     11.45293      1.67366      5.56461         0.001290      0.002022      0.001572
     13.52573      3.80432      3.42931        -0.004108     -0.001923     -0.001921
     13.54856     18.64151      0.51481        -0.003380     -0.000715     -0.000009
     10.91854     19.49563     -1.45633        -0.001025     -0.000706     -0.001204
     10.89381      2.95152      5.40148        -0.001144     -0.000789     -0.003079
      4.84105     20.43737      1.51859        -0.001625     -0.001922      0.000303
     12.98937     17.36397      0.67864         0.001283      0.000634      0.003636
     12.96746      5.08239      3.26511         0.002150     -0.002386     -0.001363
      3.32610     17.02504      3.82029         0.001269      0.000426      0.000003
      2.76821     18.30302      3.65529        -0.000040      0.003240      0.002096
      2.74809      4.17041      0.27778         0.002423     -0.001019     -0.001118
      5.38296      3.31311      2.25242        -0.001774      0.002834     -0.001215
     11.47808     20.77331     -1.62013        -0.001114     -0.001598      0.000840
      4.82196      2.03620      2.41528         0.001607      0.001063      0.001002
      3.30728      5.44815      0.11377        -0.003694     -0.003338      0.000518
      5.39784     19.15884      1.68424         0.001331      0.000070     -0.005090
     14.23864     29.90329     -1.66102        -0.004956      0.004311      0.001786
     14.25559     23.22162      2.12070        -0.001900     -0.002416     -0.003226
     10.21088     14.22353      3.22460         0.000868      0.002532     -0.000045
     10.19519      8.22667      0.71620        -0.000214     -0.001456      0.001649
      2.06092     23.57587     -1.02696         0.001356     -0.001523     -0.001365
      6.10412     14.57799      0.07975        -0.000157      0.000784      0.000037
      2.04648     29.57297      1.48292         0.000420      0.000290      0.000536
      6.09271      7.89245      3.85965        -0.000336     -0.002046      0.001632
     12.49381      3.07556      1.35369        -0.002977      0.007237      0.003152
     12.51596     19.37153      2.58946         0.000887     -0.002911     -0.004277
     11.94960     18.07370      2.75638         0.000594      0.002254      0.002477
     11.92815      4.37371      1.18680         0.002176      0.001725      0.001768
      3.80310     19.72747     -0.56030        -0.000842     -0.000304     -0.003502
      4.36787     18.42916     -0.39188         0.003851     -0.000472      0.003000
      3.77927      2.74780      4.49102        -0.000629     -0.002149      0.003030
      4.34625      4.04537      4.32420         0.000802     -0.001733     -0.003894
      0.61183     26.91786     -2.91314         0.003010      0.000060     -0.000396
     15.69293     26.56625      0.22914        -0.001840      0.000361     -0.003064
      7.54289     11.23236      1.97075        -0.000449     -0.000889     -0.000224
      8.76332     11.57534     -1.17291        -0.001246      0.005456     -0.004238
      6.00508      3.54937      1.38926        -0.000385     -0.000522     -0.002366
     13.16012     16.57561     -0.05412         0.000697     -0.000315     -0.003461
     13.13870      5.86988      3.99863        -0.001603      0.004256      0.002488
     11.28275      0.88578      4.83089        -0.001351      0.004070      0.003475
     11.30876     21.56070     -0.88585         0.000040      0.001010     -0.000845
     10.30035     19.25797     -0.59036         0.003838      0.001653     -0.006462
      2.14829     18.53977      2.79069        -0.000792     -0.000593     -0.001666
      2.13079      3.93251      1.14419         0.000285      0.001725     -0.002842
     14.16743     18.87880     -0.35053        -0.001222      0.000484      0.002826
      3.13802      6.23561      0.84814        -0.000430     -0.001092     -0.005016
      3.15398     16.23614      3.08833        -0.000040      0.000415     -0.000748
      5.00995     21.22518      2.25266         0.002486     -0.001435     -0.004316
      6.01390     18.92077      2.55140         0.000427      0.000549     -0.001935
     10.27441      3.18882      4.53654         0.001234      0.001335      0.002130
     14.14329      3.56558      4.29534        -0.001003      0.004198     -0.003785
      4.99390      1.24755      1.68293        -0.001296      0.000795     -0.000176
     11.11951     13.91813     -1.25578         0.001927     -0.002980      0.002713
      5.18015      8.89648      2.05688        -0.002814      0.000102     -0.004466
      7.59500     14.54431     -1.60141        -0.000463     -0.002357      0.003808
      0.56849     23.60089      0.65280        -0.001090      0.001387     -0.002759
      2.95700     29.27304     -2.99522         0.002748     -0.002772      0.003883
      7.58781      8.61015     -0.75108        -0.001433      0.000084     -0.003263
     15.72994     29.87700     -3.34186         0.002257      0.000329      0.002551
     13.34096     24.21999      0.31494         0.001948     -0.000502      0.004906
      0.55813     29.53459     -0.19999        -0.002432     -0.000905      0.001957
      8.72146     14.19175      1.54208        -0.000434      0.000455      0.004076
     11.11050      8.53170      5.19939         0.002774      0.000333     -0.002605
     13.33044     28.90120      0.14525        -0.000853     -0.001910     -0.000323
      8.70226      8.26074      2.39531         0.000073      0.001838     -0.004376
      5.19273     13.58155      1.88738        -0.000250     -0.002618      0.002555
      2.97178     23.88793      3.45799         0.001951     -0.000519     -0.001452
     15.75027     23.94620     -2.49007         0.001385     -0.000825      0.000283
     15.60467     28.19189     -2.04898         0.000013      0.000999      0.003510
     14.82797     27.87235     -0.96840        -0.001462     -0.000190      0.000806
     15.61582     24.93831      2.50575        -0.002810      0.001410     -0.003430
      8.84937     12.50852      2.83685        -0.002902     -0.001688      0.002413
      9.61814     10.26119      0.02318        -0.000364     -0.001092      0.003225
      1.47518     25.60921     -1.71615        -0.002086     -0.000072      0.000954
      9.62543     12.19170      3.91875         0.000365      0.004338     -0.001596
      8.83877      9.94594      1.10319        -0.001785      0.000686      0.001042
      6.68609     12.54558      0.77481         0.001284      0.000508     -0.002612
      0.69752     25.28890     -0.63634        -0.001877      0.002040      0.000594
      1.46705     27.54044      2.17989        -0.001804     -0.000883     -0.001768
      6.67887      9.92503      3.16851         0.002835      0.000405      0.002930
     14.83598     25.25452      1.42637         0.002139     -0.000137     -0.003912
      0.69055     27.85301      1.09698        -0.002358     -0.001917      0.001680
      7.45754      9.60493      4.24766         0.003547      0.000698      0.000957
      7.46339     12.86058     -0.30688         0.001042     -0.001558      0.001813
     13.61075      0.49873      1.68947         0.002573     -0.000376     -0.002173
     13.63368     21.94830      2.25224        -0.002272     -0.002200      0.002530
     10.83369     15.49640      3.09373         0.003437      0.001441      0.000297
     10.81475      6.95221      0.84814         0.003929      0.001029      0.001588
      2.68556     22.30366     -0.89791         0.000788      0.002108      0.000376
      5.48242     15.85146     -0.05210        -0.002245     -0.007474     -0.000372
      2.66372      0.17038      4.82999         0.004643     -0.002926      0.000977
      5.46753      6.62050      3.98906        -0.000210     -0.000375      0.000328
     12.67840     29.82566      2.49667         0.002066     -0.002282      0.000634
     14.58145      1.18300      3.66352         0.002209      0.001960     -0.002217
     14.60231     21.26337      0.27729         0.000488      0.000174      0.005071
      9.85997     16.87495     -1.22261         0.001074      0.000336     -0.004148
      9.84097      5.57392      5.16429        -0.000166     -0.000330      0.004570
      3.62770     22.96510      1.09869         0.000057      0.002118     -0.001893
     11.77116     14.83787      1.09367        -0.000191     -0.001560      0.001823
     11.74996      7.60954      2.84977         0.005577      0.004448     -0.005517
      4.54231     14.49827      4.23802        -0.001755     -0.002307      0.002858
      1.70960     20.92469      3.41975         0.000924     -0.002040      0.004818
      1.69486      1.54815      0.51652         0.002303     -0.002268     -0.003686
      6.44518      5.93314      2.01953         0.001456     -0.000821      0.000943
     12.70005     23.29859     -2.03427        -0.005419      0.003118     -0.001915
      3.60161     30.18859     -0.65126         0.003749     -0.003456      0.005869
      4.52564      7.97409     -0.30230         0.000284      0.001152     -0.002141
      6.44975     16.53597      1.92379         0.000161     -0.000342     -0.005626
 -----------------------------------------------------------------------------------
    total drift:                                0.010788     -0.012926     -0.008653


--------------------------------------------------------------------------------------------------------



  FREE ENERGIE OF THE ION-ELECTRON SYSTEM (eV)
  ---------------------------------------------------
  free  energy   TOTEN  =     -1161.91719444 eV

  energy  without entropy=    -1161.91719444  energy(sigma->0) =    -1161.91719444
 


--------------------------------------------------------------------------------------------------------


    POTLOK:  cpu time    0.1596: real time    0.1596


--------------------------------------------------------------------------------------------------------




--------------------------------------------------------------------------------------------------------


  
 reached required accuracy - stopping structural energy minimisation
 writing wavefunctions
     LOOP+:  cpu time  591.7732: real time  601.5239
    4ORBIT:  cpu time    0.0000: real time    0.0000

 total amount of memory used by VASP MPI-rank0   127515. kBytes
=======================================================================

   base      :      30000. kBytes
   nonlr-proj:       6269. kBytes
   fftplans  :       9881. kBytes
   grid      :      17783. kBytes
   one-center:        606. kBytes
   wavefun   :      62976. kBytes
 
  
  
 General timing and accounting informations for this job:
 ========================================================
  
                  Total CPU time used (sec):      685.266
                            User time (sec):      626.613
                          System time (sec):       58.653
                         Elapsed time (sec):      697.118
  
                   Maximum memory used (kb):     1010116.
                   Average memory used (kb):           0.
  
                          Minor page faults:       429777
                          Major page faults:            9
                 Voluntary context switches:        14004
