       N       E                     dE             d eps       ncg     rms          rms(c)
DAV:   1     0.562434449043E+04    0.56243E+04   -0.26462E+05  4608   0.141E+03
DAV:   2    -0.248319005168E+03   -0.58727E+04   -0.56657E+04  6720   0.318E+02
DAV:   3    -0.125654203077E+04   -0.10082E+04   -0.99919E+03  5440   0.139E+02
DAV:   4    -0.130031279355E+04   -0.43771E+02   -0.43393E+02  6880   0.437E+01
DAV:   5    -0.130113483549E+04   -0.82204E+00   -0.81755E+00  5920   0.460E+00
DAV:   6    -0.130117990153E+04   -0.45066E-01   -0.45005E-01  7232   0.131E+00
DAV:   7    -0.130118064530E+04   -0.74378E-03   -0.74262E-03  5984   0.132E-01
DAV:   8    -0.130118068165E+04   -0.36348E-04   -0.36333E-04  7360   0.293E-02    0.956E+01
DAV:   9    -0.162476549152E+04   -0.32358E+03   -0.39904E+03  7520   0.826E+01    0.331E+02
DAV:  10    -0.152581157500E+04    0.98954E+02   -0.26972E+02  5760   0.323E+01    0.207E+02
DAV:  11    -0.118561659472E+04    0.34019E+03   -0.59861E+02  6304   0.849E+01    0.734E+01
DAV:  12    -0.116749775652E+04    0.18119E+02   -0.43563E+02  6816   0.601E+01    0.482E+01
DAV:  13    -0.115865568281E+04    0.88421E+01   -0.12852E+02  6208   0.145E+01    0.264E+01
DAV:  14    -0.117761621656E+04   -0.18961E+02   -0.11587E+02  6432   0.183E+01    0.624E+01
DAV:  15    -0.118057675697E+04   -0.29605E+01   -0.39327E+02  6752   0.251E+01    0.565E+01
DAV:  16    -0.116997927320E+04    0.10597E+02   -0.11862E+02  6784   0.170E+01    0.402E+01
DAV:  17    -0.117376170568E+04   -0.37824E+01   -0.21958E+02  6848   0.152E+01    0.480E+01
DAV:  18    -0.116882689424E+04    0.49348E+01   -0.10692E+02  6848   0.136E+01    0.281E+01
DAV:  19    -0.116783842776E+04    0.98847E+00   -0.32251E+01  6848   0.102E+01    0.208E+01
DAV:  20    -0.116963015454E+04   -0.17917E+01   -0.10731E+00  6272   0.263E+00    0.167E+01
DAV:  21    -0.117270717271E+04   -0.30770E+01   -0.78785E+00  6528   0.368E+00    0.166E+01
DAV:  22    -0.117322403938E+04   -0.51687E+00   -0.34785E-01  6560   0.138E+00    0.150E+01
DAV:  23    -0.117395539503E+04   -0.73136E+00   -0.35641E-01  5952   0.137E+00    0.136E+01
DAV:  24    -0.117471014125E+04   -0.75475E+00   -0.39862E+00  6080   0.216E+00    0.119E+01
DAV:  25    -0.117483556821E+04   -0.12543E+00   -0.21122E+00  6176   0.267E+00    0.876E+00
DAV:  26    -0.117490356906E+04   -0.68001E-01   -0.22736E+00  6080   0.151E+00    0.926E+00
DAV:  27    -0.117458247415E+04    0.32109E+00   -0.35787E-01  6432   0.133E+00    0.688E+00
DAV:  28    -0.117464986619E+04   -0.67392E-01   -0.37352E-01  6016   0.941E-01    0.539E+00
DAV:  29    -0.117468101452E+04   -0.31148E-01   -0.20233E-02  5728   0.386E-01    0.533E+00
DAV:  30    -0.117470664365E+04   -0.25629E-01   -0.81367E-03  6688   0.328E-01    0.536E+00
DAV:  31    -0.117458600092E+04    0.12064E+00   -0.13740E-01  6304   0.123E+00    0.496E+00
DAV:  32    -0.117452196096E+04    0.64040E-01   -0.15904E-01  6304   0.144E+00    0.381E+00
DAV:  33    -0.117462708347E+04   -0.10512E+00   -0.10214E-01  6368   0.837E-01    0.322E+00
DAV:  34    -0.117462088410E+04    0.61994E-02   -0.38002E-02  6016   0.598E-01    0.288E+00
DAV:  35    -0.117472639790E+04   -0.10551E+00   -0.71370E-02  6016   0.769E-01    0.284E+00
DAV:  36    -0.117474169317E+04   -0.15295E-01   -0.29140E-02  6144   0.666E-01    0.206E+00
DAV:  37    -0.117471805833E+04    0.23635E-01   -0.25625E-02  6624   0.469E-01    0.168E+00
DAV:  38    -0.117473372350E+04   -0.15665E-01   -0.14073E-02  6624   0.383E-01    0.120E+00
DAV:  39    -0.117475949785E+04   -0.25774E-01   -0.14403E-02  6336   0.288E-01    0.109E+00
DAV:  40    -0.117479285022E+04   -0.33352E-01   -0.56447E-03  6592   0.183E-01    0.782E-01
DAV:  41    -0.117484252536E+04   -0.49675E-01   -0.69014E-03  6048   0.178E-01    0.890E-01
DAV:  42    -0.117487110020E+04   -0.28575E-01   -0.46884E-03  6720   0.205E-01    0.844E-01
DAV:  43    -0.117488560705E+04   -0.14507E-01   -0.23449E-03  6112   0.134E-01    0.815E-01
DAV:  44    -0.117495844995E+04   -0.72843E-01   -0.54881E-03  6208   0.189E-01    0.493E-01
DAV:  45    -0.117500623327E+04   -0.47783E-01   -0.32398E-03  6400   0.127E-01    0.312E-01
DAV:  46    -0.117501164970E+04   -0.54164E-02   -0.10837E-03  6656   0.892E-02    0.328E-01
DAV:  47    -0.117501067652E+04    0.97318E-03   -0.13209E-04  6336   0.292E-02    0.327E-01
DAV:  48    -0.117501706798E+04   -0.63915E-02   -0.58355E-04  6304   0.636E-02    0.332E-01
DAV:  49    -0.117504443914E+04   -0.27371E-01   -0.18127E-03  6336   0.120E-01    0.259E-01
DAV:  50    -0.117507690521E+04   -0.32466E-01   -0.30502E-03  6112   0.131E-01    0.185E-01
DAV:  51    -0.117508237972E+04   -0.54745E-02   -0.90453E-04  6784   0.669E-02    0.165E-01
DAV:  52    -0.117508277171E+04   -0.39199E-03   -0.80173E-05  6368   0.203E-02    0.157E-01
DAV:  53    -0.117508396087E+04   -0.11892E-02   -0.64041E-05  6336   0.235E-02    0.140E-01
DAV:  54    -0.117508457573E+04   -0.61486E-03   -0.73743E-04  6048   0.802E-02    0.800E-02
DAV:  55    -0.117508810850E+04   -0.35328E-02   -0.31385E-04  5760   0.352E-02    0.638E-02
DAV:  56    -0.117509009103E+04   -0.19825E-02   -0.16404E-04  6208   0.251E-02    0.606E-02
DAV:  57    -0.117509100173E+04   -0.91070E-03   -0.52205E-05  5824   0.145E-02    0.495E-02
DAV:  58    -0.117509147888E+04   -0.47715E-03   -0.51939E-05  5984   0.160E-02    0.300E-02
DAV:  59    -0.117509154711E+04   -0.68233E-04   -0.35221E-05  6592   0.157E-02    0.222E-02
DAV:  60    -0.117509159952E+04   -0.52411E-04   -0.50350E-06  4864   0.574E-03    0.159E-02
DAV:  61    -0.117509166959E+04   -0.70064E-04   -0.29916E-06  4544   0.499E-03    0.117E-02
DAV:  62    -0.117509174998E+04   -0.80393E-04   -0.49155E-06  4832   0.460E-03    0.467E-03
DAV:  63    -0.117509176456E+04   -0.14584E-04   -0.10984E-06  3872   0.303E-03    0.547E-03
DAV:  64    -0.117509178461E+04   -0.20044E-04   -0.10234E-06  3776   0.274E-03    0.352E-03
DAV:  65    -0.117509179677E+04   -0.12169E-04   -0.35543E-07  3616   0.161E-03    0.131E-03
DAV:  66    -0.117509180456E+04   -0.77904E-05   -0.22204E-07  3616   0.901E-04    0.132E-03
DAV:  67    -0.117509181350E+04   -0.89356E-05   -0.20735E-07  3584   0.707E-04    0.997E-04
DAV:  68    -0.117509181963E+04   -0.61266E-05   -0.14628E-07  3648   0.620E-04    0.539E-04
DAV:  69    -0.117509182545E+04   -0.58193E-05   -0.14992E-07  3648   0.543E-04    0.577E-04
DAV:  70    -0.117509182991E+04   -0.44622E-05   -0.14520E-07  3648   0.573E-04    0.432E-04
DAV:  71    -0.117509183330E+04   -0.33924E-05   -0.13791E-07  3648   0.494E-04    0.352E-04
DAV:  72    -0.117509183486E+04   -0.15587E-05   -0.77474E-08  3584   0.410E-04    0.246E-04
DAV:  73    -0.117509183583E+04   -0.97320E-06   -0.49300E-08  3392   0.316E-04
   1 F= -.11854969E+04 E0= -.11854786E+04  d E =-.118550E+04  mag=    -0.0004
