 vasp.6.0.8 29Jun18 (build Mar 14 2019 11:44:20) complex                        
  
 executed on             LinuxIFC date 2020.12.24  12:43:51
 running  128 mpi-ranks, with    1 threads/rank
 distrk:  each k-point on  128 cores,    1 groups
 distr:  one band on NCORES_PER_BAND=   4 cores,   32 groups


--------------------------------------------------------------------------------------------------------


 INCAR:
 POTCAR:    PAW_PBE C 08Apr2002                   
 POTCAR:    PAW_PBE Fe 06Sep2000                  
 POTCAR:    PAW_PBE H 15Jun2001                   
 POTCAR:    PAW_PBE N 08Apr2002                   
 POTCAR:    PAW_PBE O 08Apr2002                   
 POTCAR:    PAW_PBE C 08Apr2002                   
   VRHFIN =C: s2p2                                                              
   LEXCH  = PE                                                                  
   EATOM  =   147.1560 eV,   10.8157 Ry                                         
                                                                                
   TITEL  = PAW_PBE C 08Apr2002                                                 
   LULTRA =        F    use ultrasoft PP ?                                      
   IUNSCR =        1    unscreen: 0-lin 1-nonlin 2-no                           
   RPACOR =    1.200    partial core radius                                     
   POMASS =   12.011; ZVAL   =    4.000    mass and valenz                      
   RCORE  =    1.500    outmost cutoff radius                                   
   RWIGS  =    1.630; RWIGS  =    0.863    wigner-seitz radius (au A)           
   ENMAX  =  400.000; ENMIN  =  300.000 eV                                      
   ICORE  =        2    local potential                                         
   LCOR   =        T    correct aug charges                                     
   LPAW   =        T    paw PP                                                  
   EAUG   =  644.873                                                            
   DEXC   =    0.000                                                            
   RMAX   =    1.529    core radius for proj-oper                               
   RAUG   =    1.300    factor for augmentation sphere                          
   RDEP   =    1.501    radius for radial grids                                 
   RDEPT  =    1.300    core radius for aug-charge                              
                                                                                
   Atomic configuration                                                         
    4 entries                                                                   
     n  l   j            E        occ.                                          
     1  0  0.50      -273.3789   2.0000                                         
     2  0  0.50       -13.7508   2.0000                                         
     2  1  0.50        -5.2854   2.0000                                         
     3  2  1.50        -5.4423   0.0000                                         
   Description                                                                  
     l       E           TYP  RCUT    TYP  RCUT                                 
     0    -13.7508458     23  1.200                                             
     0     -8.2022199     23  1.200                                             
     1     -5.2854383     23  1.500                                             
     1     34.0145650     23  1.500                                             
     2     -5.4423304      7  1.500                                             
  local pseudopotential read in
  partial core-charges read in
  partial kinetic energy density read in
  atomic valenz-charges read in
  non local Contribution for L=           0  read in
    real space projection operators read in
  non local Contribution for L=           0  read in
    real space projection operators read in
  non local Contribution for L=           1  read in
    real space projection operators read in
  non local Contribution for L=           1  read in
    real space projection operators read in
    PAW grid and wavefunctions read in
 
   number of l-projection  operators is LMAX  =           4
   number of lm-projection operators is LMMAX =           8
 
 POTCAR:    PAW_PBE Fe 06Sep2000                  
   VRHFIN =Fe:  d7 s1                                                           
   LEXCH  = PE                                                                  
   EATOM  =   594.3153 eV,   43.6809 Ry                                         
                                                                                
   TITEL  = PAW_PBE Fe 06Sep2000                                                
   LULTRA =        F    use ultrasoft PP ?                                      
   IUNSCR =        1    unscreen: 0-lin 1-nonlin 2-no                           
   RPACOR =    2.000    partial core radius                                     
   POMASS =   55.847; ZVAL   =    8.000    mass and valenz                      
   RCORE  =    2.300    outmost cutoff radius                                   
   RWIGS  =    2.460; RWIGS  =    1.302    wigner-seitz radius (au A)           
   ENMAX  =  267.882; ENMIN  =  200.911 eV                                      
   RCLOC  =    1.701    cutoff for local pot                                    
   LCOR   =        T    correct aug charges                                     
   LPAW   =        T    paw PP                                                  
   EAUG   =  511.368                                                            
   DEXC   =    0.000                                                            
   RMAX   =    2.356    core radius for proj-oper                               
   RAUG   =    1.300    factor for augmentation sphere                          
   RDEP   =    2.442    radius for radial grids                                 
   RDEPT  =    1.890    core radius for aug-charge                              
                                                                                
   Atomic configuration                                                         
    9 entries                                                                   
     n  l   j            E        occ.                                          
     1  0  0.50     -6993.8440   2.0000                                         
     2  0  0.50      -814.6047   2.0000                                         
     2  1  1.50      -693.3689   6.0000                                         
     3  0  0.50       -89.4732   2.0000                                         
     3  1  1.50       -55.6373   6.0000                                         
     3  2  2.50        -3.8151   7.0000                                         
     4  0  0.50        -4.2551   1.0000                                         
     4  1  1.50        -3.4015   0.0000                                         
     4  3  2.50        -1.3606   0.0000                                         
   Description                                                                  
     l       E           TYP  RCUT    TYP  RCUT                                 
     2     -3.8151135     23  2.300                                             
     2     -5.1756961     23  2.300                                             
     0     -4.2550963     23  2.300                                             
     0      7.2035603     23  2.300                                             
     1     -2.7211652     23  2.300                                             
     1     18.4316424     23  2.300                                             
  local pseudopotential read in
  partial core-charges read in
  partial kinetic energy density read in
  atomic valenz-charges read in
  non local Contribution for L=           2  read in
    real space projection operators read in
  non local Contribution for L=           2  read in
    real space projection operators read in
  non local Contribution for L=           0  read in
    real space projection operators read in
  non local Contribution for L=           0  read in
    real space projection operators read in
  non local Contribution for L=           1  read in
    real space projection operators read in
  non local Contribution for L=           1  read in
    real space projection operators read in
    PAW grid and wavefunctions read in
 
   number of l-projection  operators is LMAX  =           6
   number of lm-projection operators is LMMAX =          18
 
 POTCAR:    PAW_PBE H 15Jun2001                   
   VRHFIN =H: ultrasoft test                                                    
   LEXCH  = PE                                                                  
   EATOM  =    12.4884 eV,    0.9179 Ry                                         
                                                                                
   TITEL  = PAW_PBE H 15Jun2001                                                 
   LULTRA =        F    use ultrasoft PP ?                                      
   IUNSCR =        0    unscreen: 0-lin 1-nonlin 2-no                           
   RPACOR =    0.000    partial core radius                                     
   POMASS =    1.000; ZVAL   =    1.000    mass and valenz                      
   RCORE  =    1.100    outmost cutoff radius                                   
   RWIGS  =    0.700; RWIGS  =    0.370    wigner-seitz radius (au A)           
   ENMAX  =  250.000; ENMIN  =  200.000 eV                                      
   RCLOC  =    0.701    cutoff for local pot                                    
   LCOR   =        T    correct aug charges                                     
   LPAW   =        T    paw PP                                                  
   EAUG   =  400.000                                                            
   RMAX   =    1.123    core radius for proj-oper                               
   RAUG   =    1.200    factor for augmentation sphere                          
   RDEP   =    1.112    radius for radial grids                                 
   RDEPT  =    0.926    core radius for aug-charge                              
                                                                                
   Atomic configuration                                                         
    2 entries                                                                   
     n  l   j            E        occ.                                          
     1  0  0.50        -6.4927   1.0000                                         
     2  1  0.50        -3.4015   0.0000                                         
   Description                                                                  
     l       E           TYP  RCUT    TYP  RCUT                                 
     0     -6.4927494     23  1.100                                             
     0      6.8029130     23  1.100                                             
     1     -4.0817478     23  1.100                                             
  local pseudopotential read in
  atomic valenz-charges read in
  non local Contribution for L=           0  read in
    real space projection operators read in
  non local Contribution for L=           0  read in
    real space projection operators read in
  non local Contribution for L=           1  read in
    real space projection operators read in
    PAW grid and wavefunctions read in
 
   number of l-projection  operators is LMAX  =           3
   number of lm-projection operators is LMMAX =           5
 
 POTCAR:    PAW_PBE N 08Apr2002                   
   VRHFIN =N: s2p3                                                              
   LEXCH  = PE                                                                  
   EATOM  =   264.5486 eV,   19.4438 Ry                                         
                                                                                
   TITEL  = PAW_PBE N 08Apr2002                                                 
   LULTRA =        F    use ultrasoft PP ?                                      
   IUNSCR =        1    unscreen: 0-lin 1-nonlin 2-no                           
   RPACOR =    1.200    partial core radius                                     
   POMASS =   14.001; ZVAL   =    5.000    mass and valenz                      
   RCORE  =    1.500    outmost cutoff radius                                   
   RWIGS  =    1.400; RWIGS  =    0.741    wigner-seitz radius (au A)           
   ENMAX  =  400.000; ENMIN  =  300.000 eV                                      
   ICORE  =        2    local potential                                         
   LCOR   =        T    correct aug charges                                     
   LPAW   =        T    paw PP                                                  
   EAUG   =  627.112                                                            
   DEXC   =    0.000                                                            
   RMAX   =    1.529    core radius for proj-oper                               
   RAUG   =    1.300    factor for augmentation sphere                          
   RDEP   =    1.514    radius for radial grids                                 
   RDEPT  =    1.338    core radius for aug-charge                              
                                                                                
   Atomic configuration                                                         
    4 entries                                                                   
     n  l   j            E        occ.                                          
     1  0  0.50      -384.7179   2.0000                                         
     2  0  0.50       -18.5828   2.0000                                         
     2  1  0.50        -7.0898   3.0000                                         
     3  2  1.50        -6.8029   0.0000                                         
   Description                                                                  
     l       E           TYP  RCUT    TYP  RCUT                                 
     0    -18.5828119     23  1.200                                             
     0    -13.5018863     23  1.200                                             
     1     -7.0897853     23  1.500                                             
     1      9.5240782     23  1.500                                             
     2     -6.8029130      7  1.500                                             
  local pseudopotential read in
  partial core-charges read in
  partial kinetic energy density read in
  atomic valenz-charges read in
  non local Contribution for L=           0  read in
    real space projection operators read in
  non local Contribution for L=           0  read in
    real space projection operators read in
  non local Contribution for L=           1  read in
    real space projection operators read in
  non local Contribution for L=           1  read in
    real space projection operators read in
    PAW grid and wavefunctions read in
 
   number of l-projection  operators is LMAX  =           4
   number of lm-projection operators is LMMAX =           8
 
 POTCAR:    PAW_PBE O 08Apr2002                   
   VRHFIN =O: s2p4                                                              
   LEXCH  = PE                                                                  
   EATOM  =   432.3788 eV,   31.7789 Ry                                         
                                                                                
   TITEL  = PAW_PBE O 08Apr2002                                                 
   LULTRA =        F    use ultrasoft PP ?                                      
   IUNSCR =        1    unscreen: 0-lin 1-nonlin 2-no                           
   RPACOR =    1.200    partial core radius                                     
   POMASS =   16.000; ZVAL   =    6.000    mass and valenz                      
   RCORE  =    1.520    outmost cutoff radius                                   
   RWIGS  =    1.550; RWIGS  =    0.820    wigner-seitz radius (au A)           
   ENMAX  =  400.000; ENMIN  =  300.000 eV                                      
   ICORE  =        2    local potential                                         
   LCOR   =        T    correct aug charges                                     
   LPAW   =        T    paw PP                                                  
   EAUG   =  605.392                                                            
   DEXC   =    0.000                                                            
   RMAX   =    1.553    core radius for proj-oper                               
   RAUG   =    1.300    factor for augmentation sphere                          
   RDEP   =    1.550    radius for radial grids                                 
   RDEPT  =    1.329    core radius for aug-charge                              
                                                                                
   Atomic configuration                                                         
    4 entries                                                                   
     n  l   j            E        occ.                                          
     1  0  0.50      -514.6923   2.0000                                         
     2  0  0.50       -23.9615   2.0000                                         
     2  1  0.50        -9.0305   4.0000                                         
     3  2  1.50        -9.5241   0.0000                                         
   Description                                                                  
     l       E           TYP  RCUT    TYP  RCUT                                 
     0    -23.9615318     23  1.200                                             
     0     -9.5240782     23  1.200                                             
     1     -9.0304911     23  1.520                                             
     1      8.1634956     23  1.520                                             
     2     -9.5240782      7  1.500                                             
  local pseudopotential read in
  partial core-charges read in
  partial kinetic energy density read in
  kinetic energy density of atom read in
  atomic valenz-charges read in
  non local Contribution for L=           0  read in
    real space projection operators read in
  non local Contribution for L=           0  read in
    real space projection operators read in
  non local Contribution for L=           1  read in
    real space projection operators read in
  non local Contribution for L=           1  read in
    real space projection operators read in
    PAW grid and wavefunctions read in
 
   number of l-projection  operators is LMAX  =           4
   number of lm-projection operators is LMMAX =           8
 
 Optimization of the real space projectors (new method)

 maximal supplied QI-value         = 25.13
 optimisation between [QCUT,QGAM] = [ 12.32, 24.88] = [ 42.47,173.37] Ry 
 Optimized for a Real-space Cutoff    1.06 Angstroem

   l    n(q)    QCUT    max X(q) W(low)/X(q) W(high)/X(q)  e(spline) 
   0      8    12.315   115.676    0.34E-03    0.18E-03    0.23E-06
   0      8    12.315    87.132    0.34E-03    0.18E-03    0.22E-06
   1      7    12.315     4.429    0.45E-03    0.12E-03    0.18E-06
   1      7    12.315     2.733    0.35E-03    0.97E-04    0.15E-06
 Optimization of the real space projectors (new method)

 maximal supplied QI-value         = 16.25
 optimisation between [QCUT,QGAM] = [ 12.51, 25.03] = [ 43.85,175.40] Ry 
 Optimized for a Real-space Cutoff    1.35 Angstroem

   l    n(q)    QCUT    max X(q) W(low)/X(q) W(high)/X(q)  e(spline) 
   2      9    12.514    80.901    0.12E-03    0.34E-03    0.58E-06
   2      9    12.514    75.754    0.12E-03    0.34E-03    0.59E-06
   0     10    12.514    58.752    0.17E-03    0.81E-04    0.93E-07
   0     10    12.514    30.679    0.15E-03    0.74E-04    0.88E-07
   1     10    12.514    17.977    0.11E-03    0.79E-04    0.24E-06
   1     10    12.514    13.559    0.97E-04    0.61E-04    0.20E-06
 Optimization of the real space projectors (new method)

 maximal supplied QI-value         = 34.20
 optimisation between [QCUT,QGAM] = [ 12.31, 24.97] = [ 42.46,174.58] Ry 
 Optimized for a Real-space Cutoff    1.00 Angstroem

   l    n(q)    QCUT    max X(q) W(low)/X(q) W(high)/X(q)  e(spline) 
   0      7    12.313    19.460    0.14E-03    0.42E-03    0.16E-06
   0      7    12.313    12.209    0.12E-03    0.40E-03    0.16E-06
   1      7    12.313     4.655    0.33E-03    0.59E-03    0.89E-07
 Optimization of the real space projectors (new method)

 maximal supplied QI-value         = 25.13
 optimisation between [QCUT,QGAM] = [ 12.32, 24.88] = [ 42.47,173.37] Ry 
 Optimized for a Real-space Cutoff    1.20 Angstroem

   l    n(q)    QCUT    max X(q) W(low)/X(q) W(high)/X(q)  e(spline) 
   0      9    12.315    79.467    0.14E-03    0.22E-04    0.37E-06
   0      9    12.315    66.151    0.14E-03    0.23E-04    0.36E-06
   1      8    12.315    22.077    0.30E-03    0.54E-03    0.45E-06
   1      8    12.315    15.894    0.30E-03    0.55E-03    0.45E-06
 Optimization of the real space projectors (new method)

 maximal supplied QI-value         = 24.76
 optimisation between [QCUT,QGAM] = [ 12.38, 25.00] = [ 42.90,175.06] Ry 
 Optimized for a Real-space Cutoff    1.13 Angstroem

   l    n(q)    QCUT    max X(q) W(low)/X(q) W(high)/X(q)  e(spline) 
   0      8    12.378    20.381    0.16E-03    0.54E-05    0.27E-06
   0      8    12.378    15.268    0.17E-03    0.61E-05    0.29E-06
   1      8    12.378     5.964    0.38E-03    0.23E-03    0.28E-06
   1      8    12.378     5.382    0.33E-03    0.20E-03    0.25E-06
  PAW_PBE C 08Apr2002                   :
 energy of atom  1       EATOM= -147.1560
 kinetic energy error for atom=    0.0057 (will be added to EATOM!!)
  PAW_PBE Fe 06Sep2000                  :
 energy of atom  2       EATOM= -594.3153
 kinetic energy error for atom=    0.0017 (will be added to EATOM!!)
  PAW_PBE H 15Jun2001                   :
 energy of atom  3       EATOM=  -12.4884
 kinetic energy error for atom=    0.0004 (will be added to EATOM!!)
  PAW_PBE N 08Apr2002                   :
 energy of atom  4       EATOM= -264.5486
 kinetic energy error for atom=    0.0103 (will be added to EATOM!!)
  PAW_PBE O 08Apr2002                   :
 energy of atom  5       EATOM= -432.3788
 kinetic energy error for atom=    0.0168 (will be added to EATOM!!)
 
 
 POSCAR: FeH_exp1
  positions in direct lattice
  velocities in cartesian coordinates
 exchange correlation table for  LEXCH =        8
   RHO(1)=    0.500       N(1)  =     2000
   RHO(2)=  100.500       N(2)  =     4000
 


--------------------------------------------------------------------------------------------------------


 ion  position               nearest neighbor table
   1  0.901  0.972  0.087- 107 1.09 117 1.35  65 1.40
   2  0.931  0.983  0.394- 112 1.08 118 1.35  65 1.40
   3  0.900  0.810  0.919- 116 1.09 119 1.35  66 1.40
   4  0.599  0.472  0.590- 110 1.09 120 1.35  67 1.40
   5  0.570  0.299  0.117- 111 1.08 121 1.35  68 1.40
   6  0.069  0.798  0.113- 115 1.08 122 1.35  69 1.40
   7  0.569  0.482  0.897- 101 1.08 123 1.35  67 1.40
   8  0.600  0.310  0.423- 113 1.09 124 1.35  68 1.40
   9  0.430  0.482  0.396- 114 1.08 125 1.35  70 1.40
  10  0.099  0.809  0.420- 104 1.09 126 1.35  69 1.40
  11  0.070  0.982  0.893- 105 1.08 127 1.35  71 1.40
  12  0.431  0.298  0.616- 102 1.08 128 1.35  72 1.40
  13  0.930  0.799  0.613- 108 1.08 129 1.35  66 1.40
  14  0.100  0.971  0.587- 109 1.09 130 1.35  71 1.40
  15  0.401  0.309  0.923- 106 1.09 131 1.35  72 1.40
  16  0.400  0.471  0.090- 103 1.09 132 1.35  70 1.40
  17  0.822  0.037  0.432- 141 1.23 133 1.42  33 1.48
  18  0.845  0.083  0.065- 142 1.23 133 1.42  34 1.48
  19  0.844  0.699  0.945- 143 1.23 134 1.42  35 1.48
  20  0.655  0.583  0.566- 144 1.23 135 1.42  36 1.48
  21  0.657  0.199  0.447- 145 1.23 136 1.42  37 1.48
  22  0.178  0.743  0.077- 146 1.23 137 1.42  38 1.48
  23  0.678  0.538  0.933- 147 1.23 135 1.42  39 1.48
  24  0.679  0.244  0.080- 148 1.23 136 1.42  40 1.48
  25  0.320  0.536  0.432- 149 1.23 138 1.42  41 1.48
  26  0.155  0.698  0.444- 150 1.23 137 1.42  42 1.48
  27  0.157  0.082  0.563- 151 1.23 139 1.42  43 1.48
  28  0.345  0.198  0.946- 152 1.23 140 1.42  44 1.48
  29  0.820  0.744  0.578- 153 1.23 134 1.42  45 1.48
  30  0.180  0.036  0.930- 154 1.23 139 1.42  46 1.48
  31  0.322  0.243  0.579- 155 1.23 140 1.42  47 1.48
  32  0.344  0.581  0.065- 156 1.23 138 1.42  48 1.48
  33  0.779  0.079  0.431-  49 1.39  73 1.42  17 1.48
  34  0.803  0.124  0.074-  50 1.39  73 1.42  18 1.48
  35  0.802  0.658  0.937-  51 1.39  74 1.42  19 1.48
  36  0.697  0.624  0.575-  52 1.39  75 1.42  20 1.48
  37  0.698  0.158  0.438-  53 1.39  76 1.42  21 1.48
  38  0.221  0.702  0.079-  54 1.39  77 1.42  22 1.48
  39  0.721  0.579  0.931-  55 1.39  75 1.42  23 1.48
  40  0.722  0.203  0.081-  56 1.39  76 1.42  24 1.48
  41  0.278  0.578  0.430-  57 1.39  78 1.42  25 1.48
  42  0.197  0.657  0.436-  58 1.39  77 1.42  26 1.48
  43  0.198  0.123  0.573-  59 1.39  79 1.42  27 1.48
  44  0.303  0.157  0.937-  60 1.39  80 1.42  28 1.48
  45  0.778  0.703  0.580-  61 1.39  74 1.42  29 1.48
  46  0.222  0.078  0.929-  62 1.39  79 1.42  30 1.48
  47  0.279  0.202  0.580-  63 1.39  80 1.42  31 1.48
  48  0.302  0.623  0.073-  64 1.39  78 1.42  32 1.48
  49  0.747  0.077  0.606-  88 1.09  33 1.39  53 1.40
  50  0.794  0.166  0.903-  99 1.09  34 1.39  56 1.40
  51  0.793  0.616  0.109-  93 1.09  35 1.39  55 1.40
  52  0.706  0.666  0.403-  90 1.09  36 1.39  61 1.40
  53  0.707  0.116  0.610-  98 1.09  37 1.39  49 1.40
  54  0.253  0.704  0.904-  96 1.09  38 1.39  64 1.40
  55  0.753  0.577  0.106-  86 1.09  39 1.39  51 1.40
  56  0.754  0.205  0.906-  87 1.09  40 1.39  50 1.40
  57  0.246  0.576  0.605-  95 1.09  41 1.39  58 1.40
  58  0.206  0.615  0.608-  91 1.09  42 1.39  57 1.40
  59  0.207  0.165  0.401-  92 1.09  43 1.39  63 1.40
  60  0.294  0.115  0.108-  85 1.09  44 1.39  62 1.40
  61  0.746  0.705  0.405-  89 1.09  45 1.39  52 1.40
  62  0.254  0.075  0.105- 100 1.09  46 1.39  60 1.40
  63  0.247  0.204  0.405-  94 1.09  47 1.39  59 1.40
  64  0.293  0.665  0.901-  97 1.09  48 1.39  54 1.40
  65  0.892  0.001  0.242-   2 1.40   1 1.40 133 1.42
  66  0.891  0.780  0.766-  13 1.40   3 1.40 134 1.42
  67  0.608  0.501  0.744-   7 1.40   4 1.40 135 1.42
  68  0.609  0.280  0.269-   5 1.40   8 1.40 136 1.42
  69  0.108  0.779  0.266-   6 1.40  10 1.40 137 1.42
  70  0.391  0.500  0.244-   9 1.40  16 1.40 138 1.42
  71  0.109  0.001  0.741-  11 1.40  14 1.40 139 1.42
  72  0.392  0.279  0.769-  12 1.40  15 1.40 140 1.42
  73  0.771  0.121  0.254-  34 1.42  33 1.42  76 1.43
  74  0.770  0.661  0.757-  35 1.42  45 1.42  75 1.43
  75  0.729  0.621  0.754-  36 1.42  39 1.42  74 1.43
  76  0.730  0.161  0.258-  37 1.42  40 1.42  73 1.43
  77  0.229  0.660  0.256-  42 1.42  38 1.42  78 1.43
  78  0.270  0.620  0.253-  48 1.42  41 1.42  77 1.43
  79  0.230  0.120  0.753-  43 1.42  46 1.42  80 1.43
  80  0.271  0.160  0.757-  44 1.42  47 1.42  79 1.43
  81  0.988  0.891  0.003- 119 2.00 117 2.00 127 2.01 122 2.01
  82  0.012  0.890  0.503- 126 2.00 130 2.00 118 2.01 129 2.01
  83  0.512  0.390  0.507- 124 2.00 120 2.00 128 2.01 125 2.01
  84  0.488  0.390  0.007- 132 2.00 131 2.00 121 2.01 123 2.01
  85  0.319  0.113  0.245-  60 1.09
  86  0.746  0.544  0.240-  55 1.09
  87  0.747  0.238  0.772-  56 1.09
  88  0.754  0.044  0.740-  49 1.09
  89  0.753  0.738  0.271-  61 1.09
  90  0.680  0.667  0.266-  52 1.09
  91  0.180  0.613  0.744-  58 1.09
  92  0.182  0.167  0.264-  59 1.09
  93  0.818  0.615  0.245-  51 1.09
  94  0.255  0.237  0.271-  63 1.09
  95  0.253  0.543  0.739-  57 1.09
  96  0.246  0.736  0.770-  54 1.09
  97  0.318  0.666  0.765-  64 1.09
  98  0.682  0.114  0.746-  53 1.09
  99  0.819  0.168  0.766-  50 1.09
 100  0.247  0.043  0.238-  62 1.09
 101  0.562  0.494  0.043-   7 1.08
 102  0.438  0.286  0.471-  12 1.08
 103  0.380  0.473  0.944-  16 1.09
 104  0.119  0.806  0.566-  10 1.09
 105  0.063  0.994  0.039-  11 1.08
 106  0.380  0.306  0.070-  15 1.09
 107  0.880  0.974  0.941-   1 1.09
 108  0.937  0.787  0.468-  13 1.08
 109  0.120  0.973  0.441-  14 1.09
 110  0.620  0.474  0.444-   4 1.09
 111  0.563  0.287  0.971-   5 1.08
 112  0.938  0.994  0.540-   2 1.08
 113  0.620  0.308  0.569-   8 1.09
 114  0.437  0.494  0.542-   9 1.08
 115  0.062  0.786  0.967-   6 1.08
 116  0.880  0.808  0.066-   3 1.09
 117  0.943  0.937  0.146-   1 1.35 118 1.37  81 2.00
 118  0.961  0.944  0.335-   2 1.35 117 1.37  82 2.01
 119  0.942  0.844  0.860-   3 1.35 129 1.37  81 2.00
 120  0.557  0.437  0.649-   4 1.35 123 1.37  83 2.00
 121  0.539  0.337  0.176-   5 1.35 124 1.37  84 2.01
 122  0.039  0.837  0.172-   6 1.35 126 1.37  81 2.01
 123  0.539  0.444  0.838-   7 1.35 120 1.37  84 2.01
 124  0.558  0.344  0.364-   8 1.35 121 1.37  83 2.00
 125  0.461  0.444  0.338-   9 1.35 132 1.37  83 2.01
 126  0.057  0.844  0.360-  10 1.35 122 1.37  82 2.00
 127  0.039  0.944  0.834-  11 1.35 130 1.37  81 2.01
 128  0.461  0.337  0.675-  12 1.35 131 1.37  83 2.01
 129  0.961  0.837  0.672-  13 1.35 119 1.37  82 2.01
 130  0.058  0.937  0.646-  14 1.35 127 1.37  82 2.00
 131  0.443  0.343  0.864-  15 1.35 128 1.37  84 2.00
 132  0.442  0.437  0.150-  16 1.35 125 1.37  84 2.00
 133  0.852  0.041  0.246-  65 1.42  18 1.42  17 1.42
 134  0.851  0.740  0.763-  66 1.42  19 1.42  29 1.42
 135  0.648  0.542  0.748-  67 1.42  20 1.42  23 1.42
 136  0.649  0.240  0.266-  68 1.42  21 1.42  24 1.42
 137  0.148  0.739  0.262-  69 1.42  26 1.42  22 1.42
 138  0.351  0.540  0.247-  70 1.42  32 1.42  25 1.42
 139  0.149  0.040  0.745-  71 1.42  27 1.42  30 1.42
 140  0.352  0.239  0.765-  72 1.42  28 1.42  31 1.42
 141  0.831  0.001  0.584-  17 1.23
 142  0.872  0.083  0.909-  18 1.23
 143  0.871  0.699  0.100-  19 1.23
 144  0.627  0.583  0.411-  20 1.23
 145  0.629  0.199  0.603-  21 1.23
 146  0.169  0.779  0.924-  22 1.23
 147  0.669  0.501  0.086-  23 1.23
 148  0.670  0.281  0.928-  24 1.23
 149  0.330  0.500  0.584-  25 1.23
 150  0.128  0.698  0.599-  26 1.23
 151  0.129  0.082  0.408-  27 1.23
 152  0.372  0.198  0.102-  28 1.23
 153  0.830  0.781  0.425-  29 1.23
 154  0.170  1.000  0.082-  30 1.23
 155  0.331  0.279  0.427-  31 1.23
 156  0.371  0.582  0.910-  32 1.23
 

IMPORTANT INFORMATION: All symmetrisations will be switched off!
NOSYMM: (Re-)initialisation of all symmetry stuff for point group C_1.


----------------------------------------------------------------------------------------

                                     Primitive cell                                     

  volume of cell :    4024.5877

  direct lattice vectors                    reciprocal lattice vectors
    24.670708453  0.001551392 -0.003571372     0.040533900 -0.000000219  0.000006072
    -0.000402138 24.970368373  3.586070894    -0.000002973  0.040471583 -0.002953189
    -0.000986461  0.481760301  6.602219761     0.000023541 -0.021982602  0.153068272

  length of vectors
    24.670708760 25.226557461  6.619773390     0.040533900  0.040579187  0.154638712

  position of ions in fractional coordinates (direct lattice)
     0.900886457  0.971997531  0.087444917
     0.930989300  0.982598803  0.394073943
     0.900296058  0.810110949  0.919383146
     0.599020340  0.471856437  0.590348710
     0.569779084  0.298619922  0.116889698
     0.068898323  0.798255037  0.113023577
     0.569136448  0.482471012  0.897155134
     0.599715742  0.309793385  0.422982694
     0.430128299  0.482057088  0.396405036
     0.098869550  0.808910638  0.419748162
     0.069915051  0.982160678  0.893125878
     0.430979971  0.298160382  0.616476047
     0.930191833  0.798819128  0.613456987
     0.099797302  0.971016604  0.586983271
     0.400996068  0.308820200  0.923126553
     0.400329038  0.470897074  0.090127045
     0.821673508  0.037480742  0.432031063
     0.844636215  0.082812192  0.064856110
     0.843613484  0.699443145  0.945148487
     0.655129208  0.582746664  0.566216191
     0.656616804  0.199188446  0.447477099
     0.178067770  0.742992328  0.076608491
     0.678369791  0.537733422  0.933465060
     0.679477021  0.244348500  0.080008204
     0.320387890  0.536462478  0.432224922
     0.155102420  0.698115491  0.444256644
     0.156623394  0.081690589  0.563122045
     0.344591548  0.198022007  0.946475475
     0.820495984  0.744331073  0.577521417
     0.179621533  0.036322489  0.930274236
     0.321876672  0.243110389  0.578775604
     0.343501517  0.581492983  0.064871044
     0.779218613  0.078912317  0.431069507
     0.802814727  0.124169836  0.074289135
     0.801760816  0.658028245  0.936777525
     0.697019640  0.624118196  0.574579839
     0.698464280  0.157815402  0.438294973
     0.220662314  0.701651057  0.078735419
     0.720902783  0.579137362  0.931404425
     0.722026154  0.203001597  0.081368086
     0.277880090  0.577890128  0.430293669
     0.196989015  0.656733555  0.435848930
     0.198476321  0.123025484  0.572565105
     0.302782087  0.156634347  0.937019220
     0.777941085  0.702950333  0.579725253
     0.222051208  0.077759626  0.929420033
     0.279309500  0.201801374  0.579967933
     0.301599971  0.622850199  0.073300662
     0.747243119  0.076644422  0.606159343
     0.794185161  0.166222493  0.902839395
     0.793229620  0.616103218  0.108771915
     0.705551727  0.666030382  0.402579953
     0.707123115  0.115773504  0.609800836
     0.252736553  0.703813147  0.903981454
     0.753059786  0.576973922  0.106029732
     0.754031620  0.205311298  0.906356282
     0.245770559  0.575698170  0.604976142
     0.205578311  0.614799715  0.607801114
     0.207155079  0.165062314  0.401096177
     0.294146525  0.114560398  0.108424352
     0.745781392  0.705109417  0.405119279
     0.254047195  0.075430536  0.104561727
     0.247343069  0.204110711  0.404781165
     0.292972899  0.664746622  0.901282524
     0.892005387  0.001418153  0.241714929
     0.891195181  0.780429288  0.766110178
     0.607967326  0.501355429  0.744338348
     0.608826821  0.280204990  0.269425289
     0.107735959  0.779360160  0.265886754
     0.391158185  0.500498436  0.243594974
     0.108938812  0.000576758  0.740622875
     0.392103164  0.279305973  0.769143289
     0.771049908  0.121025854  0.254430285
     0.769854057  0.661002439  0.756980237
     0.728965101  0.621111755  0.754246916
     0.730222997  0.160922940  0.258130670
     0.228850340  0.659734157  0.256015816
     0.269745979  0.619858162  0.253127483
     0.230219797  0.119883950  0.752837295
     0.271044154  0.159763591  0.756741463
     0.987624891  0.890713022  0.003019985
     0.012400726  0.890381355  0.503208929
     0.512352909  0.390460843  0.506731372
     0.487656512  0.390227132  0.006749218
     0.319165117  0.113033324  0.245164995
     0.745939886  0.544321113  0.240305221
     0.746778726  0.238023255  0.772376090
     0.754443193  0.043901980  0.740083007
     0.752946955  0.737712298  0.270719176
     0.680373199  0.667429456  0.266340931
     0.180456925  0.613378886  0.744151363
     0.182123227  0.166596785  0.264389054
     0.818383771  0.614700938  0.245093994
     0.254638182  0.236815349  0.270855585
     0.252939367  0.543039675  0.739214246
     0.245500736  0.736432973  0.769669347
     0.318085572  0.666172891  0.764912840
     0.682106174  0.114271462  0.746488530
     0.819238729  0.167713370  0.766264269
     0.246859915  0.042648489  0.238331454
     0.561903510  0.494274311  0.043014116
     0.438264427  0.286295795  0.470762691
     0.379714550  0.473014146  0.943625151
     0.119474010  0.806483508  0.566462147
     0.062758538  0.994171974  0.038643180
     0.380384443  0.306413937  0.069787996
     0.880180065  0.974412956  0.940940171
     0.937373288  0.786714767  0.468128467
     0.120424688  0.973149567  0.440533859
     0.619614300  0.474292512  0.443647083
     0.562585449  0.286571040  0.971450749
     0.938315066  0.994379352  0.539935512
     0.620372630  0.307673297  0.569416411
     0.437251338  0.494084264  0.541934397
     0.061607705  0.786394444  0.967296822
     0.879667971  0.808030277  0.065794701
     0.942592417  0.937430855  0.145995388
     0.961159234  0.944115272  0.334627523
     0.942155146  0.844406656  0.860027587
     0.557433707  0.437192580  0.649466007
     0.539337455  0.337026661  0.175585256
     0.038824270  0.836907264  0.171788324
     0.538993700  0.443886677  0.838219836
     0.557803619  0.344062906  0.363894173
     0.460583781  0.443623949  0.337942003
     0.057320196  0.843619002  0.360474468
     0.039454320  0.943775842  0.834370284
     0.461105651  0.336745976  0.675454223
     0.960602631  0.837299322  0.671834963
     0.057888290  0.936755235  0.646032775
     0.442603629  0.343470700  0.864085163
     0.442198802  0.436601713  0.149505536
     0.851765366  0.041476158  0.246084161
     0.850787391  0.740465107  0.763006096
     0.648155660  0.541516300  0.747872253
     0.649303490  0.240328469  0.265758911
     0.147931174  0.739217191  0.262329239
     0.350706858  0.540421280  0.246827247
     0.149394304  0.040449004  0.744523283
     0.351861523  0.239235726  0.764969532
     0.830929166  0.000990171  0.583890854
     0.872083696  0.083233740  0.909422230
     0.871068161  0.699305328  0.100413137
     0.627499016  0.583094567  0.411248487
     0.629255903  0.198910250  0.603012660
     0.168730053  0.779238073  0.924039954
     0.669151433  0.501434411  0.085960385
     0.670197791  0.280772291  0.927967473
     0.329515473  0.500014756  0.584346509
     0.127638532  0.697886764  0.599496053
     0.129211665  0.082076357  0.407565956
     0.371930371  0.197693820  0.102158602
     0.829675973  0.780663132  0.425104129
     0.170466757  0.999736972  0.081903790
     0.331313990  0.279407713  0.426508403
     0.370972966  0.581729252  0.909651679

  ion indices of the primitive-cell ions
   primitive index   ion index
                 1           1
                 2           2
                 3           3
                 4           4
                 5           5
                 6           6
                 7           7
                 8           8
                 9           9
                10          10
                11          11
                12          12
                13          13
                14          14
                15          15
                16          16
                17          17
                18          18
                19          19
                20          20
                21          21
                22          22
                23          23
                24          24
                25          25
                26          26
                27          27
                28          28
                29          29
                30          30
                31          31
                32          32
                33          33
                34          34
                35          35
                36          36
                37          37
                38          38
                39          39
                40          40
                41          41
                42          42
                43          43
                44          44
                45          45
                46          46
                47          47
                48          48
                49          49
                50          50
                51          51
                52          52
                53          53
                54          54
                55          55
                56          56
                57          57
                58          58
                59          59
                60          60
                61          61
                62          62
                63          63
                64          64
                65          65
                66          66
                67          67
                68          68
                69          69
                70          70
                71          71
                72          72
                73          73
                74          74
                75          75
                76          76
                77          77
                78          78
                79          79
                80          80
                81          81
                82          82
                83          83
                84          84
                85          85
                86          86
                87          87
                88          88
                89          89
                90          90
                91          91
                92          92
                93          93
                94          94
                95          95
                96          96
                97          97
                98          98
                99          99
               100         100
               101         101
               102         102
               103         103
               104         104
               105         105
               106         106
               107         107
               108         108
               109         109
               110         110
               111         111
               112         112
               113         113
               114         114
               115         115
               116         116
               117         117
               118         118
               119         119
               120         120
               121         121
               122         122
               123         123
               124         124
               125         125
               126         126
               127         127
               128         128
               129         129
               130         130
               131         131
               132         132
               133         133
               134         134
               135         135
               136         136
               137         137
               138         138
               139         139
               140         140
               141         141
               142         142
               143         143
               144         144
               145         145
               146         146
               147         147
               148         148
               149         149
               150         150
               151         151
               152         152
               153         153
               154         154
               155         155
               156         156

----------------------------------------------------------------------------------------

 
 

Automatic generation of k-mesh.
 generate k-points for:    1    1    4
Space group operators:
 irot       det(A)        alpha          n_x          n_y          n_z        tau_x        tau_y        tau_z
    1     1.000000     0.000000     1.000000     0.000000     0.000000     0.000000     0.000000     0.000000
 
 Subroutine IBZKPT returns following result:
 ===========================================
 
 Found      3 irreducible k-points:
 
 Following reciprocal coordinates:
            Coordinates               Weight
  0.000000  0.000000  0.000000      1.000000
  0.000000  0.000000  0.250000      2.000000
  0.000000  0.000000  0.500000      1.000000
 
 Following cartesian coordinates:
            Coordinates               Weight
  0.000000  0.000000  0.000000      1.000000
  0.000006 -0.005496  0.038267      2.000000
  0.000012 -0.010991  0.076534      1.000000
 


--------------------------------------------------------------------------------------------------------




 Dimension of arrays:
   k-points           NKPTS =      3   k-points in BZ     NKDIM =      3   number of bands    NBANDS=    384
   number of dos      NEDOS =    301   number of ions     NIONS =    156
   non local maximal  LDIM  =      6   non local SUM 2l+1 LMDIM =     18
   total plane-waves  NPLWV = 960000
   max r-space proj   IRMAX =   2486   max aug-charges    IRDMAX=   8696
   dimension x,y,z NGX =   150 NGY =  160 NGZ =   40
   dimension x,y,z NGXF=   300 NGYF=  320 NGZF=   80
   support grid    NGXF=   300 NGYF=  320 NGZF=   80
   ions per type =              80   4  32  24  16
   NGX,Y,Z   is equivalent  to a cutoff of  10.11, 10.54, 10.05 a.u.
   NGXF,Y,Z  is equivalent  to a cutoff of  20.22, 21.09, 20.09 a.u.

 SYSTEM =  flex_MOF                                
 POSCAR =  FeH_exp1                                

 Startparameter for this run:
   NWRITE =      2    write-flag & timer
   PREC   = normal    normal or accurate (medium, high low for compatibility)
   ISTART =      0    job   : 0-new  1-cont  2-samecut
   ICHARG =      2    charge: 1-file 2-atom 10-const
   ISPIN  =      2    spin polarized calculation?
   LNONCOLLINEAR =      F non collinear calculations
   LSORBIT =      F    spin-orbit coupling
   INIWAV =      1    electr: 0-lowe 1-rand  2-diag
   LASPH  =      F    aspherical Exc in radial PAW
   METAGGA=      F    non-selfconsistent MetaGGA calc.

 Electronic Relaxation 1
   ENCUT  =  600.0 eV  44.10 Ry    6.64 a.u.  49.27 50.38 13.22*2*pi/ulx,y,z
   ENINI  =  600.0     initial cutoff
   ENAUG  =  644.9 eV  augmentation charge cutoff
   NELM   =     80;   NELMIN=  3; NELMDL= -8     # of ELM steps 
   EDIFF  = 0.1E-05   stopping-criterion for ELM
   LREAL  =      T    real-space projection
   NLSPLINE    = F    spline interpolate recip. space projectors
   LCOMPAT=      F    compatible to vasp.4.4
   GGA_COMPAT  = T    GGA compatible to vasp.4.4-vasp.4.6
   LMAXPAW     = -100 max onsite density
   LMAXMIX     =    2 max onsite mixed and CHGCAR
   VOSKOWN=      0    Vosko Wilk Nusair interpolation
   ROPT   =   -0.00050  -0.00050  -0.00050  -0.00050
   ROPT   =   -0.00050
 Ionic relaxation
   EDIFFG = -.1E-01   stopping-criterion for IOM
   NSW    =   1000    number of steps for IOM
   NBLOCK =      1;   KBLOCK =   1000    inner block; outer block 
   IBRION =      2    ionic relax: 0-MD 1-quasi-New 2-CG
   NFREE  =      1    steps in history (QN), initial steepest desc. (CG)
   ISIF   =      4    stress and relaxation
   IWAVPR =     11    prediction:  0-non 1-charg 2-wave 3-comb
   ISYM   =      0    0-nonsym 1-usesym 2-fastsym
   LCORR  =      T    Harris-Foulkes like correction to forces

   POTIM  = 0.5000    time-step for ionic-motion
   TEIN   =    0.0    initial temperature
   TEBEG  =    0.0;   TEEND  =   0.0 temperature during run
   SMASS  =  -3.00    Nose mass-parameter (am)
   estimated Nose-frequenzy (Omega)   =  0.10E-29 period in steps = 0.13E+47 mass=  -0.139E-25a.u.
   SCALEE = 1.0000    scale energy and forces
   NPACO  =    256;   APACO  = 16.0  distance and # of slots for P.C.
   PSTRESS=    0.0 pullay stress

  Mass of Ions in am
   POMASS =  12.01 55.85  1.00 14.00 16.00
  Ionic Valenz
   ZVAL   =   4.00  8.00  1.00  5.00  6.00
  Atomic Wigner-Seitz radii
   RWIGS  =  -1.00 -1.00 -1.00 -1.00 -1.00
  virtual crystal weights 
   VCA    =   1.00  1.00  1.00  1.00  1.00
   NELECT =     600.0000    total number of electrons
   NUPDOWN=      -1.0000    fix difference up-down

 DOS related values:
   EMIN   =  10.00;   EMAX   =-10.00  energy-range for DOS
   EFERMI =   0.00
   ISMEAR =     0;   SIGMA  =   0.05  broadening in eV -4-tet -1-fermi 0-gaus

 Electronic relaxation 2 (details)
   IALGO  =     38    algorithm
   LDIAG  =      T    sub-space diagonalisation (order eigenvalues)
   LSUBROT=      F    optimize rotation matrix (better conditioning)
   TURBO    =      0    0=normal 1=particle mesh
   IRESTART =      0    0=no restart 2=restart with 2 vectors
   NREBOOT  =      0    no. of reboots
   NMIN     =      0    reboot dimension
   EREF     =   0.00    reference energy to select bands
   IMIX   =      4    mixing-type and parameters
     AMIX     =   0.40;   BMIX     =  1.00
     AMIX_MAG =   1.60;   BMIX_MAG =  1.00
     AMIN     =   0.10
     WC   =   100.;   INIMIX=   1;  MIXPRE=   1;  MAXMIX= -45

 Intra band minimization:
   WEIMIN = 0.0010     energy-eigenvalue tresh-hold
   EBREAK =  0.65E-09  absolut break condition
   DEPER  =   0.30     relativ break condition  

   TIME   =   0.40     timestep for ELM

  volume/ion in A,a.u.               =      25.80       174.10
  Fermi-wavevector in a.u.,A,eV,Ry     =   0.868063  1.640402 10.252454  0.753534
  Thomas-Fermi vector in A             =   1.986688
 
 Write flags
   LWAVE        =      T    write WAVECAR
   LDOWNSAMPLE  =      F    k-point downsampling of WAVECAR
   LCHARG       =      T    write CHGCAR
   LVTOT        =      F    write LOCPOT, total local potential
   LVHAR        =      F    write LOCPOT, Hartree potential only
   LELF         =      F    write electronic localiz. function (ELF)
   LORBIT       =     11    0 simple, 1 ext, 2 COOP (PROOUT), +10 PAW based schemes


 Dipole corrections
   LMONO  =      F    monopole corrections only (constant potential shift)
   LDIPOL =      F    correct potential (dipole corrections)
   IDIPOL =      0    1-x, 2-y, 3-z, 4-all directions 
   EPSILON=  1.0000000 bulk dielectric constant

 Exchange correlation treatment:
   GGA     =    PE    GGA type
   LEXCH   =     8    internal setting for exchange type
   VOSKOWN=      0    Vosko Wilk Nusair interpolation
   LHFCALC =     F    Hartree Fock is set to
   LHFONE  =     F    Hartree Fock one center treatment
   AEXX    =    0.0000 exact exchange contribution

 Linear response parameters
   LEPSILON=     F    determine dielectric tensor
   LRPA    =     F    only Hartree local field effects (RPA)
   LNABLA  =     F    use nabla operator in PAW spheres
   LVEL    =     F    velocity operator in full k-point grid
   LINTERFAST=   F  fast interpolation
   KINTER  =     0    interpolate to denser k-point grid
   CSHIFT  =0.1000    complex shift for real part using Kramers Kronig
   OMEGAMAX=  -1.0    maximum frequency
   DEG_THRESHOLD= 0.2000000E-02 threshold for treating states as degnerate
   RTIME   =   -0.100 relaxation time in fs
  (WPLASMAI=    0.000 imaginary part of plasma frequency in eV, 0.658/RTIME)
   DFIELD  = 0.0000000 0.0000000 0.0000000 field for delta impulse in time
 
 Orbital magnetization related:
   ORBITALMAG=     F  switch on orbital magnetization
   LCHIMAG   =     F  perturbation theory with respect to B field
   DQ        =  0.001000  dq finite difference perturbation B field
   LLRAUG    =     F  two centre corrections for induced B field



--------------------------------------------------------------------------------------------------------


 conjugate gradient relaxation of ions
 charge density and potential will be updated during run
 spin polarized calculation
 Variant of blocked Davidson
 Davidson routine will perform the subspace rotation
 perform sub-space diagonalisation
    after iterative eigenvector-optimisation
 modified Broyden-mixing scheme, WC =      100.0
 initial mixing is a Kerker type mixing with AMIX =  0.4000 and BMIX =      1.0000
 Hartree-type preconditioning will be used
 using additional bands           84
 real space projection scheme for non local part
 use partial core corrections
 calculate Harris-corrections to forces 
   (improved forces if not selfconsistent)
 use gradient corrections 
 use of overlap-Matrix (Vanderbilt PP)
 Gauss-broadening in eV      SIGMA  =   0.05


--------------------------------------------------------------------------------------------------------


  energy-cutoff  :      600.00
  volume of cell :     4024.59
      direct lattice vectors                 reciprocal lattice vectors
    24.670708453  0.001551392 -0.003571372     0.040533900 -0.000000219  0.000006072
    -0.000402138 24.970368373  3.586070894    -0.000002973  0.040471583 -0.002953189
    -0.000986461  0.481760301  6.602219761     0.000023541 -0.021982602  0.153068272

  length of vectors
    24.670708760 25.226557461  6.619773390     0.040533900  0.040579187  0.154638712


 
 k-points in units of 2pi/SCALE and weight: read from INCAR                         
   0.00000000  0.00000000  0.00000000       0.250
   0.00000589 -0.00549565  0.03826707       0.500
   0.00001177 -0.01099130  0.07653414       0.250
 
 k-points in reciprocal lattice and weights: read from INCAR                         
   0.00000000  0.00000000  0.00000000       0.250
   0.00000000  0.00000000  0.25000000       0.500
   0.00000000  0.00000000  0.50000000       0.250
 
 position of ions in fractional coordinates (direct lattice) 
   0.90088646  0.97199753  0.08744492
   0.93098930  0.98259880  0.39407394
   0.90029606  0.81011095  0.91938315
   0.59902034  0.47185644  0.59034871
   0.56977908  0.29861992  0.11688970
   0.06889832  0.79825504  0.11302358
   0.56913645  0.48247101  0.89715513
   0.59971574  0.30979339  0.42298269
   0.43012830  0.48205709  0.39640504
   0.09886955  0.80891064  0.41974816
   0.06991505  0.98216068  0.89312588
   0.43097997  0.29816038  0.61647605
   0.93019183  0.79881913  0.61345699
   0.09979730  0.97101660  0.58698327
   0.40099607  0.30882020  0.92312655
   0.40032904  0.47089707  0.09012704
   0.82167351  0.03748074  0.43203106
   0.84463622  0.08281219  0.06485611
   0.84361348  0.69944314  0.94514849
   0.65512921  0.58274666  0.56621619
   0.65661680  0.19918845  0.44747710
   0.17806777  0.74299233  0.07660849
   0.67836979  0.53773342  0.93346506
   0.67947702  0.24434850  0.08000820
   0.32038789  0.53646248  0.43222492
   0.15510242  0.69811549  0.44425664
   0.15662339  0.08169059  0.56312205
   0.34459155  0.19802201  0.94647547
   0.82049598  0.74433107  0.57752142
   0.17962153  0.03632249  0.93027424
   0.32187667  0.24311039  0.57877560
   0.34350152  0.58149298  0.06487104
   0.77921861  0.07891232  0.43106951
   0.80281473  0.12416984  0.07428914
   0.80176082  0.65802825  0.93677752
   0.69701964  0.62411820  0.57457984
   0.69846428  0.15781540  0.43829497
   0.22066231  0.70165106  0.07873542
   0.72090278  0.57913736  0.93140443
   0.72202615  0.20300160  0.08136809
   0.27788009  0.57789013  0.43029367
   0.19698902  0.65673355  0.43584893
   0.19847632  0.12302548  0.57256511
   0.30278209  0.15663435  0.93701922
   0.77794109  0.70295033  0.57972525
   0.22205121  0.07775963  0.92942003
   0.27930950  0.20180137  0.57996793
   0.30159997  0.62285020  0.07330066
   0.74724312  0.07664442  0.60615934
   0.79418516  0.16622249  0.90283939
   0.79322962  0.61610322  0.10877192
   0.70555173  0.66603038  0.40257995
   0.70712311  0.11577350  0.60980084
   0.25273655  0.70381315  0.90398145
   0.75305979  0.57697392  0.10602973
   0.75403162  0.20531130  0.90635628
   0.24577056  0.57569817  0.60497614
   0.20557831  0.61479972  0.60780111
   0.20715508  0.16506231  0.40109618
   0.29414652  0.11456040  0.10842435
   0.74578139  0.70510942  0.40511928
   0.25404720  0.07543054  0.10456173
   0.24734307  0.20411071  0.40478116
   0.29297290  0.66474662  0.90128252
   0.89200539  0.00141815  0.24171493
   0.89119518  0.78042929  0.76611018
   0.60796733  0.50135543  0.74433835
   0.60882682  0.28020499  0.26942529
   0.10773596  0.77936016  0.26588675
   0.39115819  0.50049844  0.24359497
   0.10893881  0.00057676  0.74062288
   0.39210316  0.27930597  0.76914329
   0.77104991  0.12102585  0.25443028
   0.76985406  0.66100244  0.75698024
   0.72896510  0.62111175  0.75424692
   0.73022300  0.16092294  0.25813067
   0.22885034  0.65973416  0.25601582
   0.26974598  0.61985816  0.25312748
   0.23021980  0.11988395  0.75283729
   0.27104415  0.15976359  0.75674146
   0.98762489  0.89071302  0.00301999
   0.01240073  0.89038135  0.50320893
   0.51235291  0.39046084  0.50673137
   0.48765651  0.39022713  0.00674922
   0.31916512  0.11303332  0.24516500
   0.74593989  0.54432111  0.24030522
   0.74677873  0.23802325  0.77237609
   0.75444319  0.04390198  0.74008301
   0.75294695  0.73771230  0.27071918
   0.68037320  0.66742946  0.26634093
   0.18045693  0.61337889  0.74415136
   0.18212323  0.16659679  0.26438905
   0.81838377  0.61470094  0.24509399
   0.25463818  0.23681535  0.27085558
   0.25293937  0.54303968  0.73921425
   0.24550074  0.73643297  0.76966935
   0.31808557  0.66617289  0.76491284
   0.68210617  0.11427146  0.74648853
   0.81923873  0.16771337  0.76626427
   0.24685991  0.04264849  0.23833145
   0.56190351  0.49427431  0.04301412
   0.43826443  0.28629579  0.47076269
   0.37971455  0.47301415  0.94362515
   0.11947401  0.80648351  0.56646215
   0.06275854  0.99417197  0.03864318
   0.38038444  0.30641394  0.06978800
   0.88018007  0.97441296  0.94094017
   0.93737329  0.78671477  0.46812847
   0.12042469  0.97314957  0.44053386
   0.61961430  0.47429251  0.44364708
   0.56258545  0.28657104  0.97145075
   0.93831507  0.99437935  0.53993551
   0.62037263  0.30767330  0.56941641
   0.43725134  0.49408426  0.54193440
   0.06160770  0.78639444  0.96729682
   0.87966797  0.80803028  0.06579470
   0.94259242  0.93743085  0.14599539
   0.96115923  0.94411527  0.33462752
   0.94215515  0.84440666  0.86002759
   0.55743371  0.43719258  0.64946601
   0.53933746  0.33702666  0.17558526
   0.03882427  0.83690726  0.17178832
   0.53899370  0.44388668  0.83821984
   0.55780362  0.34406291  0.36389417
   0.46058378  0.44362395  0.33794200
   0.05732020  0.84361900  0.36047447
   0.03945432  0.94377584  0.83437028
   0.46110565  0.33674598  0.67545422
   0.96060263  0.83729932  0.67183496
   0.05788829  0.93675524  0.64603277
   0.44260363  0.34347070  0.86408516
   0.44219880  0.43660171  0.14950554
   0.85176537  0.04147616  0.24608416
   0.85078739  0.74046511  0.76300610
   0.64815566  0.54151630  0.74787225
   0.64930349  0.24032847  0.26575891
   0.14793117  0.73921719  0.26232924
   0.35070686  0.54042128  0.24682725
   0.14939430  0.04044900  0.74452328
   0.35186152  0.23923573  0.76496953
   0.83092917  0.00099017  0.58389085
   0.87208370  0.08323374  0.90942223
   0.87106816  0.69930533  0.10041314
   0.62749902  0.58309457  0.41124849
   0.62925590  0.19891025  0.60301266
   0.16873005  0.77923807  0.92403995
   0.66915143  0.50143441  0.08596038
   0.67019779  0.28077229  0.92796747
   0.32951547  0.50001476  0.58434651
   0.12763853  0.69788676  0.59949605
   0.12921167  0.08207636  0.40756596
   0.37193037  0.19769382  0.10215860
   0.82967597  0.78066313  0.42510413
   0.17046676  0.99973697  0.08190379
   0.33131399  0.27940771  0.42650840
   0.37097297  0.58172925  0.90965168
 
 position of ions in cartesian coordinates  (Angst):
  22.22503000 24.31466152  4.05976522
  22.96738172 24.72714758  6.12210683
  22.20970887 20.67308784  8.97186958
  14.77748407 12.06776493  5.58758323
  14.05661826  7.51384621  1.84056879
   1.69933794 19.98727950  3.60855959
  14.03992036 12.48057558  7.65135801
  14.79487038  7.94036162  3.90142394
  10.61098498 12.22878256  4.34430791
   2.43844248 20.40116799  5.67172741
   1.72357783 24.95529500  9.41846145
  10.63185318  7.74283689  5.13779542
  22.94756512 20.24379019  6.91147781
   2.46110064 24.52958236  7.35717052
   9.89182227  8.15670198  7.20070340
   9.87612270 11.80251409  2.28227912
  20.27082630  1.14531809  2.98383812
  20.83767653  2.10040640  0.72214817
  20.81132868 17.92199677  8.74531786
  16.16170879 14.82519572  5.82571487
  16.19868022  5.19040424  3.66630101
   4.39268369 18.58997532  3.16957331
  16.73472628 13.87816046  8.08886893
  16.76300230  6.14107098  1.40205612
   7.90355413 13.60439154  4.77629217
   3.82576760 17.64646682  5.43601771
   3.86342174  2.31137692  4.01024438
   8.50030431  5.40119138  6.95772938
  20.24134819 18.86572090  6.47921702
   4.43045818  1.35543380  6.27148847
   7.94025684  6.34988644  4.69186528
   8.47412795 14.55187918  2.51234117
  19.22341827  2.17935067  3.12621790
  19.80588484  3.13760158  0.93288788
  19.77881864 16.88375375  8.54168364
  17.19515055 15.86235238  6.02914515
  17.23111280  4.15294544  3.45716248
   5.44353579 17.55875928  3.03521090
  17.78403069 14.91110533  8.22358972
  17.81273483  5.10934472  1.26260948
   6.85484183 14.63785889  4.91225592
   4.85916452 16.60915910  5.23195998
   4.89593717  3.34813870  4.22066993
   7.46886128  4.36310574  6.74702734
  19.19150315 17.83342426  6.34552493
   5.47721251  2.38978867  6.41429382
   6.89010998  5.31889349  4.55175226
   7.44036218 15.58858016  2.71645492
  18.43438836  2.20702222  4.27418084
  19.59215310  4.58682115  6.55399340
  19.56918164 15.43795690  2.92469299
  17.40579600 16.82606560  5.04383370
  17.44458010  3.18578190  4.43868572
   6.23401504 18.01036801  8.49130544
  18.57818181 14.45950058  2.76641152
  18.60151761  5.56451501  6.71753130
   6.06250552 14.66723016  6.05780215
   5.07091578 15.64490875  6.21681769
   5.11020050  4.31522039  3.23931044
   7.25665013  2.91330623  1.12561260
  18.39827211 17.80316926  5.20059541
   6.26739081  1.93429609  0.95993145
   6.10164736  5.29211087  3.40352633
   7.22669258 17.03362467  8.33324749
  22.00616582  0.15324431  1.59775499
  21.98534690 19.85807088  7.85351972
  14.99804877 12.87856561  6.71001019
  15.01981053  7.12756477  2.78146558
   2.65734674 19.58917111  4.54989880
   9.64970798 12.61559153  3.40169345
   2.68686684  0.37137356  4.89143422
   9.67259180  7.34552404  6.07826370
  19.02204784  3.14583076  2.11105824
  18.99183246 16.87135176  7.36540205
  17.98309166 15.87388645  7.20445127
  18.01479933  4.14379506  2.27870858
   5.64538217 16.59749821  4.05530883
   6.65432544 15.60045189  3.89309522
   5.67889463  3.35659067  5.39948741
   6.68604055  4.35434420  5.56812900
  24.36504458 22.24441938  3.21057147
   0.30508025 22.47559575  6.51522231
  12.63945236  9.99486899  4.74394234
  12.03066804  9.74812328  1.44220038
   7.87374226  2.94108964  2.02283883
  18.40240951 13.70882548  3.53585795
  18.42270260  6.31678704  5.95029793
  18.61190033  1.45396166  5.04093187
  18.57517108 18.55253771  4.43014704
  16.78475770 16.79532740  4.14946084
   4.45101945 15.67507928  7.11202653
   4.49278123  4.28763779  2.34233209
  20.18961844 15.46865505  3.81960280
   6.28174193  6.04424902  2.63657532
   6.23924580 13.91641722  6.82693034
   6.05562170 18.76017962  7.72155025
   7.84637396 17.00358061  7.43792988
  16.82726021  3.21408725  5.33583083
  20.21037651  4.55829129  5.65755133
   6.08995673  1.18015009  1.72557551
  13.86231647 12.36380585  2.05448460
  10.81171438  7.37638616  4.13319055
   9.36670590 12.26652769  7.92492678
   2.94662536 20.41127460  6.63158793
   1.54785968 24.84355453  3.82007781
   9.38416163  7.68548010  1.55821929
  21.71334572 24.78612358  9.70346428
  23.12488493 19.87153748  5.90855423
   2.97013645 24.51232171  6.39785461
  15.28569539 12.05795155  4.62768924
  13.87830806  7.62466364  7.43938620
  23.14796493 25.09159391  7.12733669
  15.30434684  7.95800023  4.86053495
  10.78656699 12.59922691  5.34822960
   1.51863529 20.10265975  9.20615240
  21.70164221 20.20987565  3.32890331
  23.25390171 23.47979088  4.32222079
  23.71176949 23.73760752  5.59151609
  23.24244698 21.50093407  8.70282847
  13.75146799 11.23061152  5.85373009
  13.30552838  8.50110660  2.36592777
   0.95731623 20.98070370  4.13525439
  13.29635105 11.48867108  7.12399572
  13.76091313  8.76755263  3.63435115
  11.36241640 11.24097502  3.82038938
   1.41343501 21.23922847  5.40500450
   0.97216342 23.96845813  8.89300215
  11.37500135  8.73479346  5.66544538
  23.69774800 21.23282618  7.43478613
   1.42713114 23.70244606  7.62431430
  10.91835459  8.99355847  6.93500972
  10.90903467 10.97481745  2.55117384
  21.01339557  1.15554995  1.77039619
  20.98847722 18.85859243  7.68985582
  15.98950382 13.88316219  6.87721800
  16.01841830  6.13012983  2.61411476
   3.64901083 18.58513487  4.38231222
   8.65172584 13.61397409  3.56634425
   3.68491261  1.36894007  5.06002579
   8.67982223  6.34288204  5.90715661
  20.49903481  0.30730947  3.85555900
  21.51399204  2.51785361  6.29957298
  21.48948837 17.51163808  3.16759717
  15.48020512 14.75918283  4.80393031
  15.52351408  5.25834600  4.69228105
   4.16146506 19.90328926  8.89451522
  16.50815347 12.56345237  2.36331891
  16.53322601  7.45908515  7.13112100
   8.12860266 12.76757881  5.64989561
   3.14806097 17.71550100  6.46022025
   3.18730826  2.24602643  2.98471018
   9.17560548  4.98628049  1.38208930
  20.46796077 19.69953144  5.60318114
   4.20505284 25.00352292  4.12526568
   8.17321775  7.18290233  3.81669483
   9.15103461 14.96480331  8.09051775
 


--------------------------------------------------------------------------------------------------------


 k-point  1 :   0.0000 0.0000 0.0000  plane waves:  134355
 k-point  2 :   0.0000 0.0000 0.2500  plane waves:  134321
 k-point  3 :   0.0000 0.0000 0.5000  plane waves:  134360

 maximum and minimum number of plane-waves per node :     33716    33409

 maximum number of plane-waves:    134360
 maximum index in each direction: 
   IXMAX=   49   IYMAX=   50   IZMAX=   13
   IXMIN=  -49   IYMIN=  -50   IZMIN=  -13


 real space projection operators:
  total allocation   :      12239.02 KBytes
  max/ min on nodes  :       3098.52       3025.06


 parallel 3D FFT for wavefunctions:
    minimum data exchange during FFTs selected (reduces bandwidth)
 parallel 3D FFT for charge:
    minimum data exchange during FFTs selected (reduces bandwidth)


 total amount of memory used by VASP MPI-rank0   115015. kBytes
=======================================================================

   base      :      30000. kBytes
   nonlr-proj:       6729. kBytes
   fftplans  :      10044. kBytes
   grid      :      27806. kBytes
   one-center:       1213. kBytes
   wavefun   :      39223. kBytes
 
     INWAV:  cpu time    0.0001: real time    0.0001
 Broyden mixing: mesh for mixing (old mesh)
   NGX = 99   NGY =101   NGZ = 27
  (NGX  =300   NGY  =320   NGZ  = 80)
  gives a total of 269973 points

 initial charge density was supplied:
 charge density of overlapping atoms calculated
 number of electron     600.0000000 magnetization       0.0000000
 keeping initial charge density in first step


--------------------------------------------------------------------------------------------------------


 Maximum index for non-local projection operator          685
 Maximum index for augmentation-charges          460 (set IRDMAX)


--------------------------------------------------------------------------------------------------------


 First call to EWALD:  gamma=   0.111
 Maximum number of real-space cells 2x 2x 6
 Maximum number of reciprocal cells 4x 4x 1

    FEWALD:  cpu time    0.0861: real time    0.0862


--------------------------------------- Iteration      1(   1)  ---------------------------------------


    POTLOK:  cpu time    0.4217: real time    0.4449
    SETDIJ:  cpu time    0.0824: real time    0.0837
     EDDAV:  cpu time   17.3275: real time   17.4604
       DOS:  cpu time    0.0817: real time    0.0823
    --------------------------------------------
      LOOP:  cpu time   17.9134: real time   18.0714

 eigenvalue-minimisations  :  4608
 total energy-change (2. order) : 0.5624344E+04  (-0.2646177E+05)
 number of electron     600.0000000 magnetization       0.0000000
 augmentation part      600.0000000 magnetization       0.0000000

 Free energy of the ion-electron system (eV)
  ---------------------------------------------------
  alpha Z        PSCENC =       440.42074213
  Ewald energy   TEWEN  =     42055.79740440
  -Hartree energ DENC   =    -65066.21733693
  -exchange      EXHF   =         0.00000000
  -V(xc)+E(xc)   XCENC  =      2064.04745439
  PAW double counting   =     21422.65208726   -21556.96843230
  entropy T*S    EENTRO =        -0.05171743
  eigenvalues    EBANDS =     -1550.93994032
  atomic energy  EATOM  =     27815.60422923
  Solvation  Ediel_sol  =         0.00000000
  ---------------------------------------------------
  free energy    TOTEN  =      5624.34449043 eV

  energy without entropy =     5624.39620786  energy(sigma->0) =     5624.37034914


--------------------------------------------------------------------------------------------------------




--------------------------------------- Iteration      1(   2)  ---------------------------------------


     EDDAV:  cpu time   23.1908: real time   23.2213
       DOS:  cpu time    0.0040: real time    0.0040
    --------------------------------------------
      LOOP:  cpu time   23.1948: real time   23.2253

 eigenvalue-minimisations  :  6720
 total energy-change (2. order) :-0.5872663E+04  (-0.5665689E+04)
 number of electron     600.0000000 magnetization       0.0000000
 augmentation part      600.0000000 magnetization       0.0000000

 Free energy of the ion-electron system (eV)
  ---------------------------------------------------
  alpha Z        PSCENC =       440.42074213
  Ewald energy   TEWEN  =     42055.79740440
  -Hartree energ DENC   =    -65066.21733693
  -exchange      EXHF   =         0.00000000
  -V(xc)+E(xc)   XCENC  =      2064.04745439
  PAW double counting   =     21422.65208726   -21556.96843230
  entropy T*S    EENTRO =        -0.01192364
  eigenvalues    EBANDS =     -7423.64322971
  atomic energy  EATOM  =     27815.60422923
  Solvation  Ediel_sol  =         0.00000000
  ---------------------------------------------------
  free energy    TOTEN  =      -248.31900517 eV

  energy without entropy =     -248.30708153  energy(sigma->0) =     -248.31304335


--------------------------------------------------------------------------------------------------------




--------------------------------------- Iteration      1(   3)  ---------------------------------------


     EDDAV:  cpu time   19.2447: real time   19.2679
       DOS:  cpu time    0.0029: real time    0.0029
    --------------------------------------------
      LOOP:  cpu time   19.2476: real time   19.2708

 eigenvalue-minimisations  :  5440
 total energy-change (2. order) :-0.1008223E+04  (-0.9991927E+03)
 number of electron     600.0000000 magnetization       0.0000000
 augmentation part      600.0000000 magnetization       0.0000000

 Free energy of the ion-electron system (eV)
  ---------------------------------------------------
  alpha Z        PSCENC =       440.42074213
  Ewald energy   TEWEN  =     42055.79740440
  -Hartree energ DENC   =    -65066.21733693
  -exchange      EXHF   =         0.00000000
  -V(xc)+E(xc)   XCENC  =      2064.04745439
  PAW double counting   =     21422.65208726   -21556.96843230
  entropy T*S    EENTRO =        -0.04601542
  eigenvalues    EBANDS =     -8431.83216353
  atomic energy  EATOM  =     27815.60422923
  Solvation  Ediel_sol  =         0.00000000
  ---------------------------------------------------
  free energy    TOTEN  =     -1256.54203077 eV

  energy without entropy =    -1256.49601536  energy(sigma->0) =    -1256.51902306


--------------------------------------------------------------------------------------------------------




--------------------------------------- Iteration      1(   4)  ---------------------------------------


     EDDAV:  cpu time   23.3788: real time   23.4067
       DOS:  cpu time    0.0039: real time    0.0039
    --------------------------------------------
      LOOP:  cpu time   23.3828: real time   23.4107

 eigenvalue-minimisations  :  6880
 total energy-change (2. order) :-0.4377076E+02  (-0.4339286E+02)
 number of electron     600.0000000 magnetization       0.0000000
 augmentation part      600.0000000 magnetization       0.0000000

 Free energy of the ion-electron system (eV)
  ---------------------------------------------------
  alpha Z        PSCENC =       440.42074213
  Ewald energy   TEWEN  =     42055.79740440
  -Hartree energ DENC   =    -65066.21733693
  -exchange      EXHF   =         0.00000000
  -V(xc)+E(xc)   XCENC  =      2064.04745439
  PAW double counting   =     21422.65208726   -21556.96843230
  entropy T*S    EENTRO =        -0.04495730
  eigenvalues    EBANDS =     -8475.60398442
  atomic energy  EATOM  =     27815.60422923
  Solvation  Ediel_sol  =         0.00000000
  ---------------------------------------------------
  free energy    TOTEN  =     -1300.31279355 eV

  energy without entropy =    -1300.26783624  energy(sigma->0) =    -1300.29031490


--------------------------------------------------------------------------------------------------------




--------------------------------------- Iteration      1(   5)  ---------------------------------------


     EDDAV:  cpu time   21.0478: real time   21.0735
       DOS:  cpu time    0.0805: real time    0.0805
    --------------------------------------------
      LOOP:  cpu time   21.1282: real time   21.1540

 eigenvalue-minimisations  :  5920
 total energy-change (2. order) :-0.8220419E+00  (-0.8175497E+00)
 number of electron     600.0000000 magnetization       0.0000000
 augmentation part      600.0000000 magnetization       0.0000000

 Free energy of the ion-electron system (eV)
  ---------------------------------------------------
  alpha Z        PSCENC =       440.42074213
  Ewald energy   TEWEN  =     42055.79740440
  -Hartree energ DENC   =    -65066.21733693
  -exchange      EXHF   =         0.00000000
  -V(xc)+E(xc)   XCENC  =      2064.04745439
  PAW double counting   =     21422.65208726   -21556.96843230
  entropy T*S    EENTRO =        -0.04512749
  eigenvalues    EBANDS =     -8476.42585618
  atomic energy  EATOM  =     27815.60422923
  Solvation  Ediel_sol  =         0.00000000
  ---------------------------------------------------
  free energy    TOTEN  =     -1301.13483549 eV

  energy without entropy =    -1301.08970801  energy(sigma->0) =    -1301.11227175


--------------------------------------------------------------------------------------------------------




--------------------------------------- Iteration      1(   6)  ---------------------------------------


     EDDAV:  cpu time   25.2243: real time   25.2549
       DOS:  cpu time    0.0034: real time    0.0034
    --------------------------------------------
      LOOP:  cpu time   25.2277: real time   25.2583

 eigenvalue-minimisations  :  7232
 total energy-change (2. order) :-0.4506603E-01  (-0.4500480E-01)
 number of electron     600.0000000 magnetization       0.0000000
 augmentation part      600.0000000 magnetization       0.0000000

 Free energy of the ion-electron system (eV)
  ---------------------------------------------------
  alpha Z        PSCENC =       440.42074213
  Ewald energy   TEWEN  =     42055.79740440
  -Hartree energ DENC   =    -65066.21733693
  -exchange      EXHF   =         0.00000000
  -V(xc)+E(xc)   XCENC  =      2064.04745439
  PAW double counting   =     21422.65208726   -21556.96843230
  entropy T*S    EENTRO =        -0.04518260
  eigenvalues    EBANDS =     -8476.47086710
  atomic energy  EATOM  =     27815.60422923
  Solvation  Ediel_sol  =         0.00000000
  ---------------------------------------------------
  free energy    TOTEN  =     -1301.17990153 eV

  energy without entropy =    -1301.13471892  energy(sigma->0) =    -1301.15731022


--------------------------------------------------------------------------------------------------------




--------------------------------------- Iteration      1(   7)  ---------------------------------------


     EDDAV:  cpu time   21.1672: real time   21.2254
       DOS:  cpu time    0.0026: real time    0.0026
    --------------------------------------------
      LOOP:  cpu time   21.1698: real time   21.2280

 eigenvalue-minimisations  :  5984
 total energy-change (2. order) :-0.7437752E-03  (-0.7426169E-03)
 number of electron     600.0000000 magnetization       0.0000000
 augmentation part      600.0000000 magnetization       0.0000000

 Free energy of the ion-electron system (eV)
  ---------------------------------------------------
  alpha Z        PSCENC =       440.42074213
  Ewald energy   TEWEN  =     42055.79740440
  -Hartree energ DENC   =    -65066.21733693
  -exchange      EXHF   =         0.00000000
  -V(xc)+E(xc)   XCENC  =      2064.04745439
  PAW double counting   =     21422.65208726   -21556.96843230
  entropy T*S    EENTRO =        -0.04518354
  eigenvalues    EBANDS =     -8476.47160994
  atomic energy  EATOM  =     27815.60422923
  Solvation  Ediel_sol  =         0.00000000
  ---------------------------------------------------
  free energy    TOTEN  =     -1301.18064530 eV

  energy without entropy =    -1301.13546176  energy(sigma->0) =    -1301.15805353


--------------------------------------------------------------------------------------------------------




--------------------------------------- Iteration      1(   8)  ---------------------------------------


     EDDAV:  cpu time   24.6356: real time   24.6971
       DOS:  cpu time    0.0029: real time    0.0029
    CHARGE:  cpu time    0.8962: real time    0.9007
    MIXING:  cpu time    0.0142: real time    0.0169
    --------------------------------------------
      LOOP:  cpu time   25.5489: real time   25.6177

 eigenvalue-minimisations  :  7360
 total energy-change (2. order) :-0.3634755E-04  (-0.3633304E-04)
 number of electron     600.0000027 magnetization       0.0001943
 augmentation part       32.5068058 magnetization      -0.0008734

 Broyden mixing:
  rms(total) = 0.95647E+01    rms(broyden)= 0.95643E+01
  rms(prec ) = 0.10533E+02
  weight for this iteration     100.00

 Free energy of the ion-electron system (eV)
  ---------------------------------------------------
  alpha Z        PSCENC =       440.42074213
  Ewald energy   TEWEN  =     42055.79740440
  -Hartree energ DENC   =    -65066.21733693
  -exchange      EXHF   =         0.00000000
  -V(xc)+E(xc)   XCENC  =      2064.04745439
  PAW double counting   =     21422.65208726   -21556.96843230
  entropy T*S    EENTRO =        -0.04518363
  eigenvalues    EBANDS =     -8476.47164619
  atomic energy  EATOM  =     27815.60422923
  Solvation  Ediel_sol  =         0.00000000
  ---------------------------------------------------
  free energy    TOTEN  =     -1301.18068165 eV

  energy without entropy =    -1301.13549802  energy(sigma->0) =    -1301.15808983


--------------------------------------------------------------------------------------------------------




--------------------------------------- Iteration      1(   9)  ---------------------------------------


    POTLOK:  cpu time    0.3530: real time    0.3859
    SETDIJ:  cpu time    0.0595: real time    0.0595
     EDDAV:  cpu time   25.3806: real time   25.4157
       DOS:  cpu time    0.0090: real time    0.0090
    CHARGE:  cpu time    0.8675: real time    0.8744
    MIXING:  cpu time    0.0136: real time    0.0255
    --------------------------------------------
      LOOP:  cpu time   26.6832: real time   26.7700

 eigenvalue-minimisations  :  7520
 total energy-change (2. order) :-0.3235848E+03  (-0.3990436E+03)
 number of electron     600.0000050 magnetization      -0.0110908
 augmentation part       55.8660830 magnetization       0.9387122

 Broyden mixing:
  rms(total) = 0.33065E+02    rms(broyden)= 0.33065E+02
  rms(prec ) = 0.33552E+02
  weight for this iteration     100.00

 eigenvalues of (default mixing * dielectric matrix)
  average eigenvalue GAMMA=   0.0874
  0.0874

 Free energy of the ion-electron system (eV)
  ---------------------------------------------------
  alpha Z        PSCENC =       440.42074213
[...]
     15.28570     12.05795      4.62769         0.001232      0.001279     -0.004852
     13.87831      7.62466      7.43939        -0.001197      0.002541      0.000621
     23.14796     25.09159      7.12734         0.000281     -0.002066     -0.001517
     15.30435      7.95800      4.86053         0.001893     -0.002632      0.004346
     10.78657     12.59923      5.34823         0.001177     -0.002307     -0.000639
      1.51864     20.10266      9.20615        -0.000414      0.002522      0.001299
     21.70164     20.20988      3.32890        -0.001771     -0.002669      0.004123
     23.25390     23.47979      4.32222         0.001360      0.001511      0.001539
     23.71177     23.73761      5.59152         0.001312     -0.002019      0.003976
     23.24245     21.50093      8.70283         0.000285     -0.002239     -0.000831
     13.75147     11.23061      5.85373        -0.001586      0.001941      0.001818
     13.30553      8.50111      2.36593         0.000537      0.000646     -0.003302
      0.95732     20.98070      4.13525        -0.003123      0.003044     -0.004167
     13.29635     11.48867      7.12400        -0.002371     -0.003315      0.003659
     13.76091      8.76755      3.63435         0.000767     -0.001977     -0.001630
     11.36242     11.24098      3.82039         0.002487     -0.002576      0.004602
      1.41344     21.23923      5.40500        -0.001101     -0.002315     -0.002158
      0.97216     23.96846      8.89300        -0.003345     -0.002222      0.004357
     11.37500      8.73479      5.66545         0.000596      0.003406     -0.002501
     23.69775     21.23283      7.43479         0.000773      0.000929     -0.002904
      1.42713     23.70245      7.62431        -0.000574      0.001261      0.003043
     10.91835      8.99356      6.93501         0.002120     -0.001319     -0.000169
     10.90903     10.97482      2.55117        -0.000185      0.001545      0.003513
     21.01340      1.15555      1.77040        -0.006023      0.003634      0.000439
     20.98848     18.85859      7.68986        -0.005501     -0.003054     -0.000641
     15.98950     13.88316      6.87722         0.004882      0.002495      0.000582
     16.01842      6.13013      2.61411         0.002814     -0.005099     -0.000445
      3.64901     18.58513      4.38231         0.007158     -0.005363     -0.001099
      8.65173     13.61397      3.56634        -0.004044      0.003123      0.001639
      3.68491      1.36894      5.06003         0.006179      0.005530      0.001910
      8.67982      6.34288      5.90716        -0.004362     -0.003836     -0.001681
     20.49903      0.30731      3.85556         0.003021      0.004638      0.006273
     21.51399      2.51785      6.29957        -0.003001      0.003326     -0.005165
     21.48949     17.51164      3.16760        -0.002959     -0.005309      0.000206
     15.48021     14.75918      4.80393         0.003708      0.001214     -0.004328
     15.52351      5.25835      4.69228         0.003688     -0.006194      0.002984
      4.16147     19.90329      8.89452         0.002020     -0.002074     -0.005631
     16.50815     12.56345      2.36332        -0.000672      0.001277      0.006642
     16.53323      7.45909      7.13112         0.001112     -0.000809     -0.005476
      8.12860     12.76758      5.64990        -0.002273      0.002557      0.008222
      3.14806     17.71550      6.46022         0.002035     -0.003587      0.001534
      3.18731      2.24603      2.98471         0.001777      0.002327     -0.002672
      9.17561      4.98628      1.38209        -0.002692     -0.003915      0.000450
     20.46796     19.69953      5.60318        -0.002586     -0.001815     -0.005022
      4.20505     25.00352      4.12527         0.001178      0.003412      0.006019
      8.17322      7.18290      3.81669        -0.002949      0.000166     -0.004548
      9.15103     14.96480      8.09052        -0.001185      0.002500     -0.001932
 -----------------------------------------------------------------------------------
    total drift:                                0.004649      0.018051     -0.037737


--------------------------------------------------------------------------------------------------------



  FREE ENERGIE OF THE ION-ELECTRON SYSTEM (eV)
  ---------------------------------------------------
  free  energy   TOTEN  =     -1185.49694530 eV

  energy  without entropy=    -1185.46018969  energy(sigma->0) =    -1185.47856750
 


--------------------------------------------------------------------------------------------------------


    POTLOK:  cpu time    0.5067: real time    0.5068


--------------------------------------------------------------------------------------------------------




--------------------------------------------------------------------------------------------------------


  
 reached required accuracy - stopping structural energy minimisation
 writing wavefunctions
     LOOP+:  cpu time 1762.8216: real time 1776.4949
    4ORBIT:  cpu time    0.0000: real time    0.0000
 


 total charge     
 
# of ion       s       p       d       tot
------------------------------------------
    1        0.868   1.764   0.000   2.632
    2        0.869   1.769   0.000   2.638
    3        0.868   1.764   0.000   2.632
    4        0.868   1.764   0.000   2.632
    5        0.869   1.769   0.000   2.638
    6        0.869   1.769   0.000   2.638
    7        0.869   1.769   0.000   2.638
    8        0.868   1.764   0.000   2.632
    9        0.869   1.769   0.000   2.638
   10        0.868   1.764   0.000   2.632
   11        0.869   1.769   0.000   2.638
   12        0.869   1.769   0.000   2.638
   13        0.869   1.769   0.000   2.638
   14        0.868   1.764   0.000   2.632
   15        0.868   1.764   0.000   2.632
   16        0.868   1.764   0.000   2.632
   17        0.862   1.714   0.000   2.577
   18        0.863   1.717   0.000   2.580
   19        0.863   1.717   0.000   2.580
   20        0.863   1.717   0.000   2.580
   21        0.863   1.717   0.000   2.579
   22        0.862   1.715   0.000   2.577
   23        0.862   1.715   0.000   2.577
   24        0.862   1.715   0.000   2.577
   25        0.862   1.715   0.000   2.577
   26        0.863   1.717   0.000   2.580
   27        0.863   1.717   0.000   2.580
   28        0.863   1.717   0.000   2.580
   29        0.862   1.715   0.000   2.577
   30        0.862   1.714   0.000   2.577
   31        0.862   1.715   0.000   2.577
   32        0.863   1.717   0.000   2.580
   33        0.865   1.786   0.000   2.650
   34        0.865   1.787   0.000   2.652
   35        0.865   1.787   0.000   2.651
   36        0.865   1.787   0.000   2.652
   37        0.865   1.787   0.000   2.651
   38        0.865   1.786   0.000   2.651
   39        0.865   1.786   0.000   2.651
   40        0.865   1.786   0.000   2.651
   41        0.865   1.786   0.000   2.651
   42        0.865   1.787   0.000   2.652
   43        0.865   1.787   0.000   2.652
   44        0.865   1.787   0.000   2.652
   45        0.865   1.786   0.000   2.651
   46        0.865   1.786   0.000   2.651
   47        0.865   1.786   0.000   2.651
   48        0.865   1.787   0.000   2.652
   49        0.870   1.766   0.000   2.636
   50        0.870   1.766   0.000   2.636
   51        0.870   1.766   0.000   2.636
   52        0.870   1.766   0.000   2.636
   53        0.870   1.766   0.000   2.636
   54        0.870   1.766   0.000   2.636
   55        0.870   1.766   0.000   2.636
   56        0.870   1.766   0.000   2.637
   57        0.870   1.766   0.000   2.636
   58        0.870   1.766   0.000   2.636
   59        0.870   1.766   0.000   2.636
   60        0.870   1.766   0.000   2.636
   61        0.870   1.766   0.000   2.636
   62        0.870   1.766   0.000   2.636
   63        0.870   1.766   0.000   2.637
   64        0.870   1.766   0.000   2.636
   65        0.846   1.788   0.000   2.634
   66        0.847   1.788   0.000   2.635
   67        0.846   1.788   0.000   2.634
   68        0.847   1.788   0.000   2.635
   69        0.846   1.788   0.000   2.635
   70        0.847   1.788   0.000   2.635
   71        0.847   1.788   0.000   2.635
   72        0.846   1.788   0.000   2.634
   73        0.865   1.791   0.000   2.656
   74        0.865   1.791   0.000   2.656
   75        0.865   1.791   0.000   2.656
   76        0.865   1.791   0.000   2.656
   77        0.865   1.791   0.000   2.656
   78        0.865   1.791   0.000   2.656
   79        0.865   1.791   0.000   2.656
   80        0.865   1.791   0.000   2.656
   81        0.388   0.502   6.052   6.941
   82        0.388   0.502   6.053   6.943
   83        0.387   0.501   6.052   6.941
   84        0.388   0.502   6.053   6.942
   85        0.639   0.048   0.000   0.687
   86        0.639   0.048   0.000   0.687
   87        0.639   0.048   0.000   0.687
   88        0.639   0.048   0.000   0.687
   89        0.639   0.048   0.000   0.687
   90        0.639   0.048   0.000   0.687
   91        0.639   0.048   0.000   0.687
   92        0.639   0.048   0.000   0.687
   93        0.639   0.048   0.000   0.687
   94        0.639   0.048   0.000   0.687
   95        0.639   0.048   0.000   0.687
   96        0.639   0.048   0.000   0.687
   97        0.639   0.048   0.000   0.687
   98        0.639   0.048   0.000   0.687
   99        0.639   0.048   0.000   0.687
  100        0.639   0.048   0.000   0.687
  101        0.637   0.049   0.000   0.686
  102        0.637   0.049   0.000   0.686
  103        0.631   0.050   0.000   0.681
  104        0.631   0.050   0.000   0.681
  105        0.637   0.049   0.000   0.686
  106        0.631   0.050   0.000   0.681
  107        0.631   0.050   0.000   0.681
  108        0.637   0.049   0.000   0.686
  109        0.631   0.050   0.000   0.681
  110        0.631   0.050   0.000   0.681
  111        0.637   0.049   0.000   0.686
  112        0.637   0.049   0.000   0.686
  113        0.631   0.050   0.000   0.681
  114        0.637   0.049   0.000   0.686
  115        0.637   0.049   0.000   0.686
  116        0.631   0.050   0.000   0.681
  117        1.236   2.608   0.000   3.844
  118        1.237   2.610   0.000   3.847
  119        1.236   2.608   0.000   3.844
  120        1.236   2.608   0.000   3.844
  121        1.237   2.610   0.000   3.847
  122        1.237   2.610   0.000   3.847
  123        1.237   2.610   0.000   3.847
  124        1.236   2.608   0.000   3.844
  125        1.237   2.610   0.000   3.847
  126        1.236   2.608   0.000   3.844
  127        1.237   2.610   0.000   3.847
  128        1.237   2.610   0.000   3.847
  129        1.237   2.610   0.000   3.847
  130        1.236   2.608   0.000   3.844
  131        1.236   2.608   0.000   3.844
  132        1.236   2.608   0.000   3.844
  133        1.210   2.721   0.000   3.931
  134        1.210   2.721   0.000   3.931
  135        1.210   2.721   0.000   3.931
  136        1.210   2.721   0.000   3.931
  137        1.210   2.721   0.000   3.931
  138        1.210   2.721   0.000   3.931
  139        1.210   2.721   0.000   3.931
  140        1.210   2.721   0.000   3.931
  141        1.584   3.541   0.000   5.124
  142        1.585   3.537   0.000   5.122
  143        1.585   3.536   0.000   5.122
  144        1.585   3.537   0.000   5.122
  145        1.585   3.536   0.000   5.122
  146        1.584   3.541   0.000   5.125
  147        1.584   3.541   0.000   5.125
  148        1.584   3.540   0.000   5.124
  149        1.584   3.540   0.000   5.124
  150        1.585   3.537   0.000   5.122
  151        1.585   3.536   0.000   5.122
  152        1.585   3.536   0.000   5.122
  153        1.584   3.540   0.000   5.124
  154        1.584   3.540   0.000   5.124
  155        1.584   3.541   0.000   5.125
  156        1.585   3.537   0.000   5.122
--------------------------------------------------
tot        145.886 264.883  24.210 434.980
 


 magnetization (x)
 
# of ion       s       p       d       tot
------------------------------------------
    1        0.003   0.021   0.000   0.024
    2        0.003   0.023   0.000   0.026
    3        0.003   0.021   0.000   0.024
    4       -0.003  -0.021   0.000  -0.024
    5       -0.003  -0.023   0.000  -0.026
    6        0.003   0.023   0.000   0.026
    7       -0.003  -0.023   0.000  -0.026
    8       -0.003  -0.021   0.000  -0.024
    9       -0.003  -0.023   0.000  -0.026
   10        0.003   0.021   0.000   0.024
   11        0.003   0.023   0.000   0.026
   12       -0.003  -0.023   0.000  -0.026
   13        0.003   0.023   0.000   0.026
   14        0.003   0.021   0.000   0.024
   15       -0.003  -0.021   0.000  -0.024
   16       -0.003  -0.021   0.000  -0.024
   17        0.000   0.001   0.000   0.001
   18        0.000   0.001   0.000   0.001
   19        0.000   0.001   0.000   0.001
   20       -0.000  -0.001   0.000  -0.001
   21       -0.000  -0.001   0.000  -0.001
   22        0.000   0.001   0.000   0.001
   23       -0.000  -0.001   0.000  -0.001
   24       -0.000  -0.001   0.000  -0.001
   25       -0.000  -0.001   0.000  -0.001
   26        0.000   0.001   0.000   0.001
   27        0.000   0.001   0.000   0.001
   28       -0.000  -0.001   0.000  -0.001
   29        0.000   0.001   0.000   0.001
   30        0.000   0.001   0.000   0.001
   31       -0.000  -0.001   0.000  -0.001
   32       -0.000  -0.001   0.000  -0.001
   33       -0.000  -0.000   0.000  -0.000
   34       -0.000  -0.000   0.000  -0.000
   35       -0.000  -0.000   0.000  -0.000
   36        0.000   0.000   0.000   0.000
   37        0.000   0.000   0.000   0.000
   38       -0.000  -0.000   0.000  -0.000
   39        0.000   0.000   0.000   0.000
   40        0.000   0.000   0.000   0.000
   41        0.000   0.000   0.000   0.000
   42       -0.000  -0.000   0.000  -0.000
   43       -0.000  -0.000   0.000  -0.000
   44        0.000   0.000   0.000   0.000
   45       -0.000  -0.000   0.000  -0.000
   46       -0.000  -0.000   0.000  -0.000
   47        0.000   0.000   0.000   0.000
   48        0.000   0.000   0.000   0.000
   49        0.000   0.000   0.000   0.000
   50        0.000   0.000   0.000   0.000
   51        0.000   0.000   0.000   0.000
   52       -0.000  -0.000   0.000  -0.000
   53       -0.000  -0.000   0.000  -0.000
   54        0.000   0.000   0.000   0.000
   55       -0.000  -0.000   0.000  -0.000
   56       -0.000  -0.000   0.000  -0.000
   57       -0.000  -0.000   0.000  -0.000
   58        0.000   0.000   0.000   0.000
   59        0.000   0.000   0.000   0.000
   60       -0.000  -0.000   0.000  -0.000
   61        0.000   0.000   0.000   0.000
   62        0.000   0.000   0.000   0.000
   63       -0.000  -0.000   0.000  -0.000
   64       -0.000  -0.000   0.000  -0.000
   65        0.002   0.013   0.000   0.014
   66        0.002   0.013   0.000   0.014
   67       -0.002  -0.013   0.000  -0.014
   68       -0.002  -0.013   0.000  -0.014
   69        0.002   0.013   0.000   0.014
   70       -0.002  -0.013   0.000  -0.014
   71        0.002   0.013   0.000   0.014
   72       -0.002  -0.013   0.000  -0.014
   73        0.000   0.000   0.000   0.000
   74        0.000   0.000   0.000   0.000
   75       -0.000  -0.000   0.000  -0.000
   76       -0.000  -0.000   0.000  -0.000
   77        0.000   0.000   0.000   0.000
   78       -0.000  -0.000   0.000  -0.000
   79        0.000   0.000   0.000   0.000
   80       -0.000  -0.000   0.000  -0.000
   81        0.019   0.088   3.390   3.496
   82        0.019   0.088   3.389   3.496
   83       -0.019  -0.088  -3.390  -3.496
   84       -0.019  -0.088  -3.389  -3.496
   85        0.000  -0.000   0.000   0.000
   86        0.000  -0.000   0.000   0.000
   87        0.000  -0.000   0.000   0.000
   88       -0.000   0.000   0.000  -0.000
   89       -0.000   0.000   0.000  -0.000
   90        0.000  -0.000   0.000   0.000
   91       -0.000   0.000   0.000  -0.000
   92       -0.000   0.000   0.000  -0.000
   93       -0.000   0.000   0.000  -0.000
   94        0.000  -0.000   0.000   0.000
   95        0.000  -0.000   0.000   0.000
   96       -0.000   0.000   0.000  -0.000
   97        0.000  -0.000   0.000   0.000
   98        0.000  -0.000   0.000   0.000
   99       -0.000   0.000   0.000  -0.000
  100       -0.000   0.000   0.000  -0.000
  101       -0.000  -0.000   0.000  -0.001
  102       -0.000  -0.000   0.000  -0.001
  103       -0.000  -0.000   0.000  -0.001
  104        0.000   0.000   0.000   0.001
  105        0.000   0.000   0.000   0.001
  106       -0.000  -0.000   0.000  -0.001
  107        0.000   0.000   0.000   0.001
  108        0.000   0.000   0.000   0.001
  109        0.000   0.000   0.000   0.001
  110       -0.000  -0.000   0.000  -0.001
  111       -0.000  -0.000   0.000  -0.001
  112        0.000   0.000   0.000   0.001
  113       -0.000  -0.000   0.000  -0.001
  114       -0.000  -0.000   0.000  -0.001
  115        0.000   0.000   0.000   0.001
  116        0.000   0.000   0.000   0.001
  117        0.011   0.038   0.000   0.048
  118        0.012   0.040   0.000   0.053
  119        0.011   0.038   0.000   0.048
  120       -0.011  -0.038   0.000  -0.048
  121       -0.012  -0.040   0.000  -0.053
  122        0.012   0.040   0.000   0.053
  123       -0.012  -0.040   0.000  -0.053
  124       -0.011  -0.038   0.000  -0.048
  125       -0.012  -0.040   0.000  -0.053
  126        0.011   0.038   0.000   0.048
  127        0.012   0.040   0.000   0.053
  128       -0.012  -0.040   0.000  -0.053
  129        0.012   0.040   0.000   0.053
  130        0.011   0.038   0.000   0.048
  131       -0.011  -0.038   0.000  -0.048
  132       -0.011  -0.038   0.000  -0.048
  133        0.000   0.001   0.000   0.001
  134        0.000   0.001   0.000   0.001
  135       -0.000  -0.001   0.000  -0.001
  136       -0.000  -0.001   0.000  -0.001
  137        0.000   0.001   0.000   0.001
  138       -0.000  -0.001   0.000  -0.001
  139        0.000   0.001   0.000   0.001
  140       -0.000  -0.001   0.000  -0.001
  141        0.000   0.002   0.000   0.002
  142        0.000   0.002   0.000   0.002
  143        0.000   0.002   0.000   0.002
  144       -0.000  -0.002   0.000  -0.002
  145       -0.000  -0.002   0.000  -0.002
  146        0.000   0.002   0.000   0.002
  147       -0.000  -0.002   0.000  -0.002
  148       -0.000  -0.002   0.000  -0.002
  149       -0.000  -0.002   0.000  -0.002
  150        0.000   0.002   0.000   0.002
  151        0.000   0.002   0.000   0.002
  152       -0.000  -0.002   0.000  -0.002
  153        0.000   0.002   0.000   0.002
  154        0.000   0.002   0.000   0.002
  155       -0.000  -0.002   0.000  -0.002
  156       -0.000  -0.002   0.000  -0.002
--------------------------------------------------
tot          0.000   0.000  -0.001  -0.000
 

 total amount of memory used by VASP MPI-rank0   115015. kBytes
=======================================================================

   base      :      30000. kBytes
   nonlr-proj:       6729. kBytes
   fftplans  :      10044. kBytes
   grid      :      27806. kBytes
   one-center:       1213. kBytes
   wavefun   :      39223. kBytes
 
  
  
 General timing and accounting informations for this job:
 ========================================================
  
                  Total CPU time used (sec):     1983.449
                            User time (sec):     1850.944
                          System time (sec):      132.506
                         Elapsed time (sec):     2005.035
  
                   Maximum memory used (kb):      980616.
                   Average memory used (kb):           0.
  
                          Minor page faults:       138143
                          Major page faults:            4
                 Voluntary context switches:        42683
