       N       E                     dE             d eps       ncg     rms          rms(c)
DAV:   1     0.566845784155E+04    0.56685E+04   -0.26201E+05  4608   0.140E+03
DAV:   2    -0.218386087044E+03   -0.58868E+04   -0.56764E+04  6752   0.317E+02
DAV:   3    -0.125531552385E+04   -0.10369E+04   -0.10276E+04  5536   0.140E+02
DAV:   4    -0.130062310272E+04   -0.45308E+02   -0.44918E+02  6880   0.443E+01
DAV:   5    -0.130141362303E+04   -0.79052E+00   -0.78605E+00  6048   0.451E+00
DAV:   6    -0.130145670039E+04   -0.43077E-01   -0.42995E-01  7168   0.128E+00
DAV:   7    -0.130145771799E+04   -0.10176E-02   -0.10153E-02  6144   0.129E-01
DAV:   8    -0.130145775562E+04   -0.37636E-04   -0.37596E-04  7200   0.294E-02    0.961E+01
DAV:   9    -0.162602039864E+04   -0.32456E+03   -0.39734E+03  7360   0.814E+01    0.332E+02
DAV:  10    -0.152949440451E+04    0.96526E+02   -0.29716E+02  5472   0.316E+01    0.208E+02
DAV:  11    -0.119276362255E+04    0.33673E+03   -0.61393E+02  6080   0.827E+01    0.749E+01
DAV:  12    -0.116368842653E+04    0.29075E+02   -0.43151E+02  6912   0.581E+01    0.436E+01
DAV:  13    -0.116597266778E+04   -0.22842E+01   -0.17727E+02  6080   0.153E+01    0.513E+01
DAV:  14    -0.117206284209E+04   -0.60902E+01   -0.32182E+02  6656   0.205E+01    0.488E+01
DAV:  15    -0.117908754665E+04   -0.70247E+01   -0.23428E+02  6784   0.160E+01    0.566E+01
DAV:  16    -0.116286241644E+04    0.16225E+02   -0.13044E+02  6784   0.192E+01    0.326E+01
DAV:  17    -0.116555251615E+04   -0.26901E+01   -0.62430E+01  6368   0.945E+00    0.332E+01
DAV:  18    -0.116659704194E+04   -0.10445E+01   -0.22833E+01  6688   0.662E+00    0.256E+01
DAV:  19    -0.116626508177E+04    0.33196E+00   -0.47307E+00  5920   0.174E+00    0.224E+01
DAV:  20    -0.116801945177E+04   -0.17544E+01   -0.86208E+00  6272   0.240E+00    0.248E+01
DAV:  21    -0.116871943356E+04   -0.69998E+00   -0.27920E+00  6336   0.225E+00    0.240E+01
DAV:  22    -0.116958283838E+04   -0.86340E+00   -0.69271E-01  6400   0.151E+00    0.214E+01
DAV:  23    -0.117046435551E+04   -0.88152E+00   -0.36649E-01  6464   0.198E+00    0.190E+01
DAV:  24    -0.117184528238E+04   -0.13809E+01   -0.50576E+00  6752   0.520E+00    0.201E+01
DAV:  25    -0.117276805638E+04   -0.92277E+00   -0.17472E+00  6496   0.434E+00    0.168E+01
DAV:  26    -0.117409574451E+04   -0.13277E+01   -0.37198E+00  6240   0.420E+00    0.139E+01
DAV:  27    -0.117420615243E+04   -0.11041E+00   -0.61725E-01  6496   0.273E+00    0.120E+01
DAV:  28    -0.117413356844E+04    0.72584E-01   -0.44948E-01  6656   0.248E+00    0.101E+01
DAV:  29    -0.117427445020E+04   -0.14088E+00   -0.11080E+00  6560   0.280E+00    0.830E+00
DAV:  30    -0.117454724749E+04   -0.27280E+00   -0.20156E-01  6240   0.162E+00    0.793E+00
DAV:  31    -0.117441173106E+04    0.13552E+00   -0.26033E-01  6368   0.130E+00    0.728E+00
DAV:  32    -0.117452997260E+04   -0.11824E+00   -0.16128E-01  6496   0.156E+00    0.544E+00
DAV:  33    -0.117463559268E+04   -0.10562E+00   -0.95822E-02  6304   0.957E-01    0.459E+00
DAV:  34    -0.117470982160E+04   -0.74229E-01   -0.29961E-02  6336   0.531E-01    0.419E+00
DAV:  35    -0.117484277153E+04   -0.13295E+00   -0.15840E-01  5952   0.129E+00    0.372E+00
DAV:  36    -0.117481531530E+04    0.27456E-01   -0.72037E-02  6208   0.690E-01    0.346E+00
DAV:  37    -0.117479015712E+04    0.25158E-01   -0.57819E-02  6624   0.775E-01    0.266E+00
DAV:  38    -0.117482762209E+04   -0.37465E-01   -0.48847E-02  6304   0.588E-01    0.267E+00
DAV:  39    -0.117483231366E+04   -0.46916E-02   -0.25641E-02  6336   0.308E-01    0.249E+00
DAV:  40    -0.117483211426E+04    0.19939E-03   -0.76584E-04  6016   0.852E-02    0.249E+00
DAV:  41    -0.117483533427E+04   -0.32200E-02   -0.19880E-03  6400   0.149E-01    0.237E+00
DAV:  42    -0.117488395604E+04   -0.48622E-01   -0.33608E-02  5984   0.664E-01    0.197E+00
DAV:  43    -0.117488048665E+04    0.34694E-02   -0.19243E-02  6112   0.386E-01    0.165E+00
DAV:  44    -0.117486170134E+04    0.18785E-01   -0.10181E-02  6368   0.211E-01    0.159E+00
DAV:  45    -0.117489184235E+04   -0.30141E-01   -0.10040E-02  6464   0.258E-01    0.124E+00
DAV:  46    -0.117492829587E+04   -0.36454E-01   -0.10800E-02  6464   0.240E-01    0.132E+00
DAV:  47    -0.117494374597E+04   -0.15450E-01   -0.37159E-03  6368   0.150E-01    0.130E+00
DAV:  48    -0.117496625275E+04   -0.22507E-01   -0.31001E-03  6816   0.172E-01    0.106E+00
DAV:  49    -0.117498774175E+04   -0.21489E-01   -0.28514E-03  6368   0.120E-01    0.993E-01
DAV:  50    -0.117500847038E+04   -0.20729E-01   -0.20644E-03  6656   0.907E-02    0.835E-01
DAV:  51    -0.117503145644E+04   -0.22986E-01   -0.31089E-03  6528   0.157E-01    0.663E-01
DAV:  52    -0.117505650602E+04   -0.25050E-01   -0.52787E-03  6176   0.119E-01    0.600E-01
DAV:  53    -0.117506759070E+04   -0.11085E-01   -0.10511E-03  6304   0.847E-02    0.581E-01
DAV:  54    -0.117507785975E+04   -0.10269E-01   -0.16636E-03  6624   0.116E-01    0.408E-01
DAV:  55    -0.117508312244E+04   -0.52627E-02   -0.31507E-03  6560   0.112E-01    0.302E-01
DAV:  56    -0.117508429330E+04   -0.11709E-02   -0.27036E-04  6688   0.432E-02    0.313E-01
DAV:  57    -0.117508581470E+04   -0.15214E-02   -0.29657E-04  6432   0.473E-02    0.314E-01
DAV:  58    -0.117508958400E+04   -0.37693E-02   -0.97161E-04  6368   0.755E-02    0.283E-01
DAV:  59    -0.117509148896E+04   -0.19050E-02   -0.60726E-04  6496   0.545E-02    0.256E-01
DAV:  60    -0.117509271369E+04   -0.12247E-02   -0.40347E-04  6336   0.427E-02    0.217E-01
DAV:  61    -0.117509376140E+04   -0.10477E-02   -0.29504E-04  6400   0.360E-02    0.194E-01
DAV:  62    -0.117509566324E+04   -0.19018E-02   -0.75711E-04  6112   0.642E-02    0.104E-01
DAV:  63    -0.117509595063E+04   -0.28739E-03   -0.23098E-04  6560   0.335E-02    0.762E-02
DAV:  64    -0.117509560860E+04    0.34203E-03   -0.12114E-03  6368   0.629E-02    0.368E-02
DAV:  65    -0.117509573579E+04   -0.12719E-03   -0.58958E-05  6016   0.207E-02    0.366E-02
DAV:  66    -0.117509588012E+04   -0.14433E-03   -0.16831E-05  5600   0.849E-03    0.302E-02
DAV:  67    -0.117509602858E+04   -0.14846E-03   -0.94446E-06  5216   0.755E-03    0.134E-02
DAV:  68    -0.117509615335E+04   -0.12477E-03   -0.45795E-06  4384   0.451E-03    0.848E-03
DAV:  69    -0.117509633888E+04   -0.18553E-03   -0.50813E-06  4640   0.432E-03    0.504E-03
DAV:  70    -0.117509643213E+04   -0.93245E-04   -0.17773E-06  4128   0.240E-03    0.362E-03
DAV:  71    -0.117509650586E+04   -0.73730E-04   -0.10809E-06  3776   0.213E-03    0.492E-03
DAV:  72    -0.117509656940E+04   -0.63538E-04   -0.14196E-06  3968   0.222E-03    0.344E-03
DAV:  73    -0.117509661637E+04   -0.46973E-04   -0.79176E-07  3744   0.173E-03    0.304E-03
DAV:  74    -0.117509665237E+04   -0.36000E-04   -0.65816E-07  3680   0.174E-03    0.136E-03
DAV:  75    -0.117509668409E+04   -0.31725E-04   -0.77564E-07  3776   0.132E-03    0.121E-03
DAV:  76    -0.117509669441E+04   -0.10314E-04   -0.19433E-07  3488   0.945E-04    0.668E-04
DAV:  77    -0.117509669917E+04   -0.47601E-05   -0.96518E-08  3296   0.580E-04    0.538E-04
DAV:  78    -0.117509670552E+04   -0.63504E-05   -0.94384E-08  3488   0.516E-04    0.652E-04
DAV:  79    -0.117509671006E+04   -0.45419E-05   -0.77930E-08  3456   0.448E-04    0.328E-04
DAV:  80    -0.117509671396E+04   -0.39015E-05   -0.96595E-08  3488   0.447E-04    0.277E-04
DAV:  81    -0.117509671518E+04   -0.12165E-05   -0.57451E-08  3296   0.392E-04    0.225E-04
DAV:  82    -0.117509671569E+04   -0.50991E-06   -0.42169E-08  3520   0.308E-04
   1 F= -.11852574E+04 E0= -.11852388E+04  d E =-.118526E+04  mag=     0.0005
