 vasp.6.0.8 29Jun18 (build Mar 14 2019 11:44:20) complex                        
  
 executed on             LinuxIFC date 2020.12.25  22:45:25
 running  128 mpi-ranks, with    1 threads/rank
 distrk:  each k-point on  128 cores,    1 groups
 distr:  one band on NCORES_PER_BAND=   4 cores,   32 groups


--------------------------------------------------------------------------------------------------------


 INCAR:
 POTCAR:    PAW_PBE C 08Apr2002                   
 POTCAR:    PAW_PBE Fe 06Sep2000                  
 POTCAR:    PAW_PBE H 15Jun2001                   
 POTCAR:    PAW_PBE N 08Apr2002                   
 POTCAR:    PAW_PBE O 08Apr2002                   
 POTCAR:    PAW_PBE C 08Apr2002                   
   VRHFIN =C: s2p2                                                              
   LEXCH  = PE                                                                  
   EATOM  =   147.1560 eV,   10.8157 Ry                                         
                                                                                
   TITEL  = PAW_PBE C 08Apr2002                                                 
   LULTRA =        F    use ultrasoft PP ?                                      
   IUNSCR =        1    unscreen: 0-lin 1-nonlin 2-no                           
   RPACOR =    1.200    partial core radius                                     
   POMASS =   12.011; ZVAL   =    4.000    mass and valenz                      
   RCORE  =    1.500    outmost cutoff radius                                   
   RWIGS  =    1.630; RWIGS  =    0.863    wigner-seitz radius (au A)           
   ENMAX  =  400.000; ENMIN  =  300.000 eV                                      
   ICORE  =        2    local potential                                         
   LCOR   =        T    correct aug charges                                     
   LPAW   =        T    paw PP                                                  
   EAUG   =  644.873                                                            
   DEXC   =    0.000                                                            
   RMAX   =    1.529    core radius for proj-oper                               
   RAUG   =    1.300    factor for augmentation sphere                          
   RDEP   =    1.501    radius for radial grids                                 
   RDEPT  =    1.300    core radius for aug-charge                              
                                                                                
   Atomic configuration                                                         
    4 entries                                                                   
     n  l   j            E        occ.                                          
     1  0  0.50      -273.3789   2.0000                                         
     2  0  0.50       -13.7508   2.0000                                         
     2  1  0.50        -5.2854   2.0000                                         
     3  2  1.50        -5.4423   0.0000                                         
   Description                                                                  
     l       E           TYP  RCUT    TYP  RCUT                                 
     0    -13.7508458     23  1.200                                             
     0     -8.2022199     23  1.200                                             
     1     -5.2854383     23  1.500                                             
     1     34.0145650     23  1.500                                             
     2     -5.4423304      7  1.500                                             
  local pseudopotential read in
  partial core-charges read in
  partial kinetic energy density read in
  atomic valenz-charges read in
  non local Contribution for L=           0  read in
    real space projection operators read in
  non local Contribution for L=           0  read in
    real space projection operators read in
  non local Contribution for L=           1  read in
    real space projection operators read in
  non local Contribution for L=           1  read in
    real space projection operators read in
    PAW grid and wavefunctions read in
 
   number of l-projection  operators is LMAX  =           4
   number of lm-projection operators is LMMAX =           8
 
 POTCAR:    PAW_PBE Fe 06Sep2000                  
   VRHFIN =Fe:  d7 s1                                                           
   LEXCH  = PE                                                                  
   EATOM  =   594.3153 eV,   43.6809 Ry                                         
                                                                                
   TITEL  = PAW_PBE Fe 06Sep2000                                                
   LULTRA =        F    use ultrasoft PP ?                                      
   IUNSCR =        1    unscreen: 0-lin 1-nonlin 2-no                           
   RPACOR =    2.000    partial core radius                                     
   POMASS =   55.847; ZVAL   =    8.000    mass and valenz                      
   RCORE  =    2.300    outmost cutoff radius                                   
   RWIGS  =    2.460; RWIGS  =    1.302    wigner-seitz radius (au A)           
   ENMAX  =  267.882; ENMIN  =  200.911 eV                                      
   RCLOC  =    1.701    cutoff for local pot                                    
   LCOR   =        T    correct aug charges                                     
   LPAW   =        T    paw PP                                                  
   EAUG   =  511.368                                                            
   DEXC   =    0.000                                                            
   RMAX   =    2.356    core radius for proj-oper                               
   RAUG   =    1.300    factor for augmentation sphere                          
   RDEP   =    2.442    radius for radial grids                                 
   RDEPT  =    1.890    core radius for aug-charge                              
                                                                                
   Atomic configuration                                                         
    9 entries                                                                   
     n  l   j            E        occ.                                          
     1  0  0.50     -6993.8440   2.0000                                         
     2  0  0.50      -814.6047   2.0000                                         
     2  1  1.50      -693.3689   6.0000                                         
     3  0  0.50       -89.4732   2.0000                                         
     3  1  1.50       -55.6373   6.0000                                         
     3  2  2.50        -3.8151   7.0000                                         
     4  0  0.50        -4.2551   1.0000                                         
     4  1  1.50        -3.4015   0.0000                                         
     4  3  2.50        -1.3606   0.0000                                         
   Description                                                                  
     l       E           TYP  RCUT    TYP  RCUT                                 
     2     -3.8151135     23  2.300                                             
     2     -5.1756961     23  2.300                                             
     0     -4.2550963     23  2.300                                             
     0      7.2035603     23  2.300                                             
     1     -2.7211652     23  2.300                                             
     1     18.4316424     23  2.300                                             
  local pseudopotential read in
  partial core-charges read in
  partial kinetic energy density read in
  atomic valenz-charges read in
  non local Contribution for L=           2  read in
    real space projection operators read in
  non local Contribution for L=           2  read in
    real space projection operators read in
  non local Contribution for L=           0  read in
    real space projection operators read in
  non local Contribution for L=           0  read in
    real space projection operators read in
  non local Contribution for L=           1  read in
    real space projection operators read in
  non local Contribution for L=           1  read in
    real space projection operators read in
    PAW grid and wavefunctions read in
 
   number of l-projection  operators is LMAX  =           6
   number of lm-projection operators is LMMAX =          18
 
 POTCAR:    PAW_PBE H 15Jun2001                   
   VRHFIN =H: ultrasoft test                                                    
   LEXCH  = PE                                                                  
   EATOM  =    12.4884 eV,    0.9179 Ry                                         
                                                                                
   TITEL  = PAW_PBE H 15Jun2001                                                 
   LULTRA =        F    use ultrasoft PP ?                                      
   IUNSCR =        0    unscreen: 0-lin 1-nonlin 2-no                           
   RPACOR =    0.000    partial core radius                                     
   POMASS =    1.000; ZVAL   =    1.000    mass and valenz                      
   RCORE  =    1.100    outmost cutoff radius                                   
   RWIGS  =    0.700; RWIGS  =    0.370    wigner-seitz radius (au A)           
   ENMAX  =  250.000; ENMIN  =  200.000 eV                                      
   RCLOC  =    0.701    cutoff for local pot                                    
   LCOR   =        T    correct aug charges                                     
   LPAW   =        T    paw PP                                                  
   EAUG   =  400.000                                                            
   RMAX   =    1.123    core radius for proj-oper                               
   RAUG   =    1.200    factor for augmentation sphere                          
   RDEP   =    1.112    radius for radial grids                                 
   RDEPT  =    0.926    core radius for aug-charge                              
                                                                                
   Atomic configuration                                                         
    2 entries                                                                   
     n  l   j            E        occ.                                          
     1  0  0.50        -6.4927   1.0000                                         
     2  1  0.50        -3.4015   0.0000                                         
   Description                                                                  
     l       E           TYP  RCUT    TYP  RCUT                                 
     0     -6.4927494     23  1.100                                             
     0      6.8029130     23  1.100                                             
     1     -4.0817478     23  1.100                                             
  local pseudopotential read in
  atomic valenz-charges read in
  non local Contribution for L=           0  read in
    real space projection operators read in
  non local Contribution for L=           0  read in
    real space projection operators read in
  non local Contribution for L=           1  read in
    real space projection operators read in
    PAW grid and wavefunctions read in
 
   number of l-projection  operators is LMAX  =           3
   number of lm-projection operators is LMMAX =           5
 
 POTCAR:    PAW_PBE N 08Apr2002                   
   VRHFIN =N: s2p3                                                              
   LEXCH  = PE                                                                  
   EATOM  =   264.5486 eV,   19.4438 Ry                                         
                                                                                
   TITEL  = PAW_PBE N 08Apr2002                                                 
   LULTRA =        F    use ultrasoft PP ?                                      
   IUNSCR =        1    unscreen: 0-lin 1-nonlin 2-no                           
   RPACOR =    1.200    partial core radius                                     
   POMASS =   14.001; ZVAL   =    5.000    mass and valenz                      
   RCORE  =    1.500    outmost cutoff radius                                   
   RWIGS  =    1.400; RWIGS  =    0.741    wigner-seitz radius (au A)           
   ENMAX  =  400.000; ENMIN  =  300.000 eV                                      
   ICORE  =        2    local potential                                         
   LCOR   =        T    correct aug charges                                     
   LPAW   =        T    paw PP                                                  
   EAUG   =  627.112                                                            
   DEXC   =    0.000                                                            
   RMAX   =    1.529    core radius for proj-oper                               
   RAUG   =    1.300    factor for augmentation sphere                          
   RDEP   =    1.514    radius for radial grids                                 
   RDEPT  =    1.338    core radius for aug-charge                              
                                                                                
   Atomic configuration                                                         
    4 entries                                                                   
     n  l   j            E        occ.                                          
     1  0  0.50      -384.7179   2.0000                                         
     2  0  0.50       -18.5828   2.0000                                         
     2  1  0.50        -7.0898   3.0000                                         
     3  2  1.50        -6.8029   0.0000                                         
   Description                                                                  
     l       E           TYP  RCUT    TYP  RCUT                                 
     0    -18.5828119     23  1.200                                             
     0    -13.5018863     23  1.200                                             
     1     -7.0897853     23  1.500                                             
     1      9.5240782     23  1.500                                             
     2     -6.8029130      7  1.500                                             
  local pseudopotential read in
  partial core-charges read in
  partial kinetic energy density read in
  atomic valenz-charges read in
  non local Contribution for L=           0  read in
    real space projection operators read in
  non local Contribution for L=           0  read in
    real space projection operators read in
  non local Contribution for L=           1  read in
    real space projection operators read in
  non local Contribution for L=           1  read in
    real space projection operators read in
    PAW grid and wavefunctions read in
 
   number of l-projection  operators is LMAX  =           4
   number of lm-projection operators is LMMAX =           8
 
 POTCAR:    PAW_PBE O 08Apr2002                   
   VRHFIN =O: s2p4                                                              
   LEXCH  = PE                                                                  
   EATOM  =   432.3788 eV,   31.7789 Ry                                         
                                                                                
   TITEL  = PAW_PBE O 08Apr2002                                                 
   LULTRA =        F    use ultrasoft PP ?                                      
   IUNSCR =        1    unscreen: 0-lin 1-nonlin 2-no                           
   RPACOR =    1.200    partial core radius                                     
   POMASS =   16.000; ZVAL   =    6.000    mass and valenz                      
   RCORE  =    1.520    outmost cutoff radius                                   
   RWIGS  =    1.550; RWIGS  =    0.820    wigner-seitz radius (au A)           
   ENMAX  =  400.000; ENMIN  =  300.000 eV                                      
   ICORE  =        2    local potential                                         
   LCOR   =        T    correct aug charges                                     
   LPAW   =        T    paw PP                                                  
   EAUG   =  605.392                                                            
   DEXC   =    0.000                                                            
   RMAX   =    1.553    core radius for proj-oper                               
   RAUG   =    1.300    factor for augmentation sphere                          
   RDEP   =    1.550    radius for radial grids                                 
   RDEPT  =    1.329    core radius for aug-charge                              
                                                                                
   Atomic configuration                                                         
    4 entries                                                                   
     n  l   j            E        occ.                                          
     1  0  0.50      -514.6923   2.0000                                         
     2  0  0.50       -23.9615   2.0000                                         
     2  1  0.50        -9.0305   4.0000                                         
     3  2  1.50        -9.5241   0.0000                                         
   Description                                                                  
     l       E           TYP  RCUT    TYP  RCUT                                 
     0    -23.9615318     23  1.200                                             
     0     -9.5240782     23  1.200                                             
     1     -9.0304911     23  1.520                                             
     1      8.1634956     23  1.520                                             
     2     -9.5240782      7  1.500                                             
  local pseudopotential read in
  partial core-charges read in
  partial kinetic energy density read in
  kinetic energy density of atom read in
  atomic valenz-charges read in
  non local Contribution for L=           0  read in
    real space projection operators read in
  non local Contribution for L=           0  read in
    real space projection operators read in
  non local Contribution for L=           1  read in
    real space projection operators read in
  non local Contribution for L=           1  read in
    real space projection operators read in
    PAW grid and wavefunctions read in
 
   number of l-projection  operators is LMAX  =           4
   number of lm-projection operators is LMMAX =           8
 
 Optimization of the real space projectors (new method)

 maximal supplied QI-value         = 25.13
 optimisation between [QCUT,QGAM] = [ 12.32, 24.88] = [ 42.47,173.37] Ry 
 Optimized for a Real-space Cutoff    1.06 Angstroem

   l    n(q)    QCUT    max X(q) W(low)/X(q) W(high)/X(q)  e(spline) 
   0      8    12.315   115.676    0.34E-03    0.18E-03    0.23E-06
   0      8    12.315    87.132    0.34E-03    0.18E-03    0.22E-06
   1      7    12.315     4.429    0.45E-03    0.12E-03    0.18E-06
   1      7    12.315     2.733    0.35E-03    0.97E-04    0.15E-06
 Optimization of the real space projectors (new method)

 maximal supplied QI-value         = 16.25
 optimisation between [QCUT,QGAM] = [ 12.51, 25.03] = [ 43.85,175.40] Ry 
 Optimized for a Real-space Cutoff    1.35 Angstroem

   l    n(q)    QCUT    max X(q) W(low)/X(q) W(high)/X(q)  e(spline) 
   2      9    12.514    80.901    0.12E-03    0.34E-03    0.58E-06
   2      9    12.514    75.754    0.12E-03    0.34E-03    0.59E-06
   0     10    12.514    58.752    0.17E-03    0.81E-04    0.93E-07
   0     10    12.514    30.679    0.15E-03    0.74E-04    0.88E-07
   1     10    12.514    17.977    0.11E-03    0.79E-04    0.24E-06
   1     10    12.514    13.559    0.97E-04    0.61E-04    0.20E-06
 Optimization of the real space projectors (new method)

 maximal supplied QI-value         = 34.20
 optimisation between [QCUT,QGAM] = [ 12.31, 24.97] = [ 42.46,174.58] Ry 
 Optimized for a Real-space Cutoff    1.00 Angstroem

   l    n(q)    QCUT    max X(q) W(low)/X(q) W(high)/X(q)  e(spline) 
   0      7    12.313    19.460    0.14E-03    0.42E-03    0.16E-06
   0      7    12.313    12.209    0.12E-03    0.40E-03    0.16E-06
   1      7    12.313     4.655    0.33E-03    0.59E-03    0.89E-07
 Optimization of the real space projectors (new method)

 maximal supplied QI-value         = 25.13
 optimisation between [QCUT,QGAM] = [ 12.32, 24.88] = [ 42.47,173.37] Ry 
 Optimized for a Real-space Cutoff    1.20 Angstroem

   l    n(q)    QCUT    max X(q) W(low)/X(q) W(high)/X(q)  e(spline) 
   0      9    12.315    79.467    0.14E-03    0.22E-04    0.37E-06
   0      9    12.315    66.151    0.14E-03    0.23E-04    0.36E-06
   1      8    12.315    22.077    0.30E-03    0.54E-03    0.45E-06
   1      8    12.315    15.894    0.30E-03    0.55E-03    0.45E-06
 Optimization of the real space projectors (new method)

 maximal supplied QI-value         = 24.76
 optimisation between [QCUT,QGAM] = [ 12.38, 25.00] = [ 42.90,175.06] Ry 
 Optimized for a Real-space Cutoff    1.13 Angstroem

   l    n(q)    QCUT    max X(q) W(low)/X(q) W(high)/X(q)  e(spline) 
   0      8    12.378    20.381    0.16E-03    0.54E-05    0.27E-06
   0      8    12.378    15.268    0.17E-03    0.61E-05    0.29E-06
   1      8    12.378     5.964    0.38E-03    0.23E-03    0.28E-06
   1      8    12.378     5.382    0.33E-03    0.20E-03    0.25E-06
  PAW_PBE C 08Apr2002                   :
 energy of atom  1       EATOM= -147.1560
 kinetic energy error for atom=    0.0057 (will be added to EATOM!!)
  PAW_PBE Fe 06Sep2000                  :
 energy of atom  2       EATOM= -594.3153
 kinetic energy error for atom=    0.0017 (will be added to EATOM!!)
  PAW_PBE H 15Jun2001                   :
 energy of atom  3       EATOM=  -12.4884
 kinetic energy error for atom=    0.0004 (will be added to EATOM!!)
  PAW_PBE N 08Apr2002                   :
 energy of atom  4       EATOM= -264.5486
 kinetic energy error for atom=    0.0103 (will be added to EATOM!!)
  PAW_PBE O 08Apr2002                   :
 energy of atom  5       EATOM= -432.3788
 kinetic energy error for atom=    0.0168 (will be added to EATOM!!)
 
 
 POSCAR: FeH_exp1
  positions in direct lattice
  velocities in cartesian coordinates
 exchange correlation table for  LEXCH =        8
   RHO(1)=    0.500       N(1)  =     2000
   RHO(2)=  100.500       N(2)  =     4000
 


--------------------------------------------------------------------------------------------------------


 ion  position               nearest neighbor table
   1  0.904  0.972  0.090- 107 1.09 117 1.35  65 1.40
   2  0.929  0.981  0.394- 112 1.08 118 1.35  65 1.40
   3  0.903  0.810  0.917- 116 1.09 119 1.35  66 1.40
   4  0.596  0.472  0.593- 110 1.09 120 1.35  67 1.40
   5  0.572  0.300  0.117- 111 1.08 121 1.35  68 1.40
   6  0.071  0.799  0.113- 115 1.08 122 1.35  69 1.40
   7  0.571  0.481  0.897- 101 1.08 123 1.35  67 1.40
   8  0.597  0.309  0.421- 113 1.09 124 1.35  68 1.40
   9  0.428  0.481  0.396- 114 1.08 125 1.35  70 1.40
  10  0.096  0.809  0.418- 104 1.09 126 1.35  69 1.40
  11  0.072  0.981  0.894- 105 1.08 127 1.35  71 1.40
  12  0.429  0.299  0.616- 102 1.08 128 1.35  72 1.40
  13  0.928  0.800  0.613- 108 1.08 129 1.35  66 1.40
  14  0.097  0.972  0.590- 109 1.09 130 1.35  71 1.40
  15  0.404  0.308  0.921- 106 1.09 131 1.35  72 1.40
  16  0.403  0.471  0.092- 103 1.09 132 1.35  70 1.40
  17  0.822  0.039  0.426- 141 1.23 133 1.42  33 1.48
  18  0.844  0.081  0.072- 142 1.23 133 1.42  34 1.48
  19  0.843  0.701  0.938- 143 1.23 134 1.42  35 1.48
  20  0.656  0.581  0.573- 144 1.23 135 1.42  36 1.48
  21  0.657  0.201  0.441- 145 1.23 136 1.42  37 1.48
  22  0.178  0.742  0.083- 146 1.23 137 1.42  38 1.48
  23  0.678  0.539  0.927- 147 1.23 135 1.42  39 1.48
  24  0.679  0.243  0.087- 148 1.23 136 1.42  40 1.48
  25  0.321  0.538  0.425- 149 1.23 138 1.42  41 1.48
  26  0.155  0.700  0.437- 150 1.23 137 1.42  42 1.48
  27  0.157  0.080  0.570- 151 1.23 139 1.42  43 1.48
  28  0.344  0.200  0.939- 152 1.23 140 1.42  44 1.48
  29  0.821  0.743  0.584- 153 1.23 134 1.42  45 1.48
  30  0.179  0.038  0.925- 154 1.23 139 1.42  46 1.48
  31  0.322  0.242  0.586- 155 1.23 140 1.42  47 1.48
  32  0.343  0.580  0.072- 156 1.23 138 1.42  48 1.48
  33  0.780  0.080  0.425-  49 1.39  73 1.42  17 1.48
  34  0.802  0.122  0.081-  50 1.39  73 1.41  18 1.48
  35  0.801  0.660  0.930-  51 1.39  74 1.41  19 1.48
  36  0.698  0.622  0.581-  52 1.39  75 1.41  20 1.48
  37  0.699  0.159  0.432-  53 1.39  76 1.41  21 1.48
  38  0.220  0.700  0.085-  54 1.39  77 1.42  22 1.48
  39  0.720  0.581  0.925-  55 1.39  75 1.42  23 1.48
  40  0.721  0.201  0.088-  56 1.39  76 1.42  24 1.48
  41  0.279  0.579  0.423-  57 1.39  78 1.42  25 1.48
  42  0.198  0.658  0.429-  58 1.39  77 1.41  26 1.48
  43  0.199  0.121  0.579-  59 1.39  79 1.41  27 1.48
  44  0.302  0.158  0.930-  60 1.39  80 1.42  28 1.48
  45  0.779  0.701  0.586-  61 1.39  74 1.42  29 1.48
  46  0.221  0.079  0.923-  62 1.39  79 1.42  30 1.48
  47  0.280  0.200  0.586-  63 1.39  80 1.42  31 1.48
  48  0.301  0.621  0.079-  64 1.39  78 1.41  32 1.48
  49  0.748  0.079  0.594-  88 1.09  33 1.39  53 1.40
  50  0.793  0.163  0.916-  99 1.09  34 1.39  56 1.40
  51  0.792  0.619  0.096-  93 1.09  35 1.39  55 1.40
  52  0.707  0.663  0.415-  90 1.09  36 1.39  61 1.40
  53  0.708  0.119  0.597-  98 1.09  37 1.39  49 1.40
  54  0.251  0.701  0.916-  96 1.09  38 1.39  64 1.40
  55  0.752  0.580  0.093-  86 1.09  39 1.39  51 1.40
  56  0.752  0.202  0.919-  87 1.09  40 1.39  50 1.40
  57  0.247  0.579  0.592-  95 1.09  41 1.39  58 1.40
  58  0.207  0.618  0.595-  91 1.09  42 1.39  57 1.40
  59  0.208  0.162  0.414-  92 1.09  43 1.39  63 1.40
  60  0.293  0.118  0.096-  85 1.09  44 1.39  62 1.40
  61  0.747  0.702  0.417-  89 1.09  45 1.39  52 1.40
  62  0.253  0.079  0.092- 100 1.09  46 1.39  60 1.40
  63  0.249  0.201  0.417-  94 1.09  47 1.39  59 1.40
  64  0.292  0.662  0.914-  97 1.09  48 1.39  54 1.40
  65  0.892  0.001  0.243-   2 1.40   1 1.40 133 1.42
  66  0.892  0.781  0.765-  13 1.40   3 1.40 134 1.42
  67  0.608  0.501  0.745-   7 1.40   4 1.40 135 1.42
  68  0.608  0.280  0.269-   5 1.40   8 1.40 136 1.42
  69  0.107  0.780  0.265-   6 1.40  10 1.40 137 1.42
  70  0.392  0.500  0.244-   9 1.40  16 1.40 138 1.42
  71  0.108  0.000  0.742-  11 1.40  14 1.40 139 1.42
  72  0.393  0.280  0.768-  12 1.40  15 1.40 140 1.42
  73  0.771  0.121  0.255-  34 1.41  33 1.42  76 1.43
  74  0.770  0.661  0.757-  35 1.41  45 1.42  75 1.43
  75  0.729  0.621  0.754-  36 1.41  39 1.42  74 1.43
  76  0.730  0.161  0.258-  37 1.41  40 1.42  73 1.43
  77  0.229  0.660  0.256-  42 1.41  38 1.42  78 1.43
  78  0.270  0.620  0.253-  48 1.41  41 1.42  77 1.43
  79  0.230  0.120  0.753-  43 1.41  46 1.42  80 1.43
  80  0.271  0.160  0.757-  44 1.42  47 1.42  79 1.43
  81  0.990  0.891  0.003- 119 2.00 117 2.00 127 2.01 122 2.01
  82  0.010  0.890  0.503- 126 2.00 130 2.00 129 2.01 118 2.01
  83  0.510  0.391  0.507- 124 2.00 120 2.00 128 2.01 125 2.01
  84  0.490  0.390  0.007- 131 2.00 132 2.00 123 2.01 121 2.01
  85  0.318  0.117  0.228-  60 1.09
  86  0.744  0.549  0.223-  55 1.09
  87  0.745  0.234  0.790-  56 1.09
  88  0.756  0.048  0.723-  49 1.09
  89  0.755  0.733  0.288-  61 1.09
  90  0.682  0.663  0.284-  52 1.09
  91  0.182  0.617  0.726-  58 1.09
  92  0.184  0.162  0.282-  59 1.09
  93  0.817  0.619  0.227-  51 1.09
  94  0.256  0.233  0.288-  63 1.09
  95  0.255  0.547  0.722-  57 1.09
  96  0.244  0.732  0.787-  54 1.09
  97  0.316  0.662  0.782-  64 1.09
  98  0.684  0.118  0.729-  53 1.09
  99  0.817  0.163  0.784-  50 1.09
 100  0.245  0.047  0.222-  62 1.09
 101  0.566  0.492  0.042-   7 1.08
 102  0.434  0.288  0.472-  12 1.08
 103  0.385  0.474  0.947-  16 1.09
 104  0.114  0.805  0.563-  10 1.09
 105  0.067  0.992  0.038-  11 1.08
 106  0.386  0.305  0.066-  15 1.09
 107  0.885  0.975  0.945-   1 1.09
 108  0.933  0.789  0.468-  13 1.08
 109  0.115  0.974  0.445-  14 1.09
 110  0.614  0.475  0.447-   4 1.09
 111  0.567  0.289  0.973-   5 1.08
 112  0.934  0.992  0.539-   2 1.08
 113  0.615  0.307  0.566-   8 1.09
 114  0.433  0.492  0.541-   9 1.08
 115  0.066  0.788  0.968-   6 1.08
 116  0.885  0.807  0.062-   3 1.09
 117  0.945  0.937  0.148-   1 1.35 118 1.38  81 2.00
 118  0.960  0.943  0.335-   2 1.35 117 1.38  82 2.01
 119  0.944  0.844  0.858-   3 1.35 129 1.38  81 2.00
 120  0.555  0.437  0.651-   4 1.35 123 1.38  83 2.00
 121  0.540  0.338  0.175-   5 1.35 124 1.38  84 2.01
 122  0.040  0.838  0.171-   6 1.35 126 1.38  81 2.01
 123  0.540  0.443  0.839-   7 1.35 120 1.38  84 2.01
 124  0.556  0.344  0.363-   8 1.35 121 1.38  83 2.00
 125  0.460  0.443  0.339-   9 1.35 132 1.38  83 2.01
 126  0.055  0.844  0.359-  10 1.35 122 1.38  82 2.00
 127  0.040  0.943  0.835-  11 1.35 130 1.38  81 2.01
 128  0.460  0.338  0.674-  12 1.35 131 1.38  83 2.01
 129  0.960  0.838  0.671-  13 1.35 119 1.38  82 2.01
 130  0.056  0.937  0.648-  14 1.35 127 1.38  82 2.00
 131  0.445  0.343  0.862-  15 1.35 128 1.38  84 2.00
 132  0.444  0.437  0.151-  16 1.35 125 1.38  84 2.00
 133  0.852  0.041  0.247-  65 1.42  18 1.42  17 1.42
 134  0.851  0.741  0.762-  66 1.42  19 1.42  29 1.42
 135  0.648  0.541  0.748-  67 1.42  20 1.42  23 1.42
 136  0.649  0.240  0.266-  68 1.42  21 1.42  24 1.42
 137  0.148  0.739  0.262-  69 1.42  26 1.42  22 1.42
 138  0.351  0.540  0.247-  70 1.42  32 1.42  25 1.42
 139  0.149  0.040  0.746-  71 1.42  27 1.42  30 1.42
 140  0.352  0.239  0.764-  72 1.42  28 1.42  31 1.42
 141  0.832  0.003  0.572-  17 1.23
 142  0.871  0.080  0.922-  18 1.23
 143  0.870  0.702  0.087-  19 1.23
 144  0.628  0.580  0.424-  20 1.23
 145  0.630  0.202  0.591-  21 1.23
 146  0.168  0.777  0.937-  22 1.23
 147  0.669  0.504  0.073-  23 1.23
 148  0.669  0.278  0.941-  24 1.23
 149  0.331  0.503  0.572-  25 1.23
 150  0.128  0.701  0.587-  26 1.23
 151  0.130  0.079  0.420-  27 1.23
 152  0.371  0.201  0.089-  28 1.23
 153  0.831  0.778  0.437-  29 1.23
 154  0.169  0.003  0.071-  30 1.23
 155  0.332  0.278  0.440-  31 1.23
 156  0.370  0.579  0.922-  32 1.23
 

IMPORTANT INFORMATION: All symmetrisations will be switched off!
NOSYMM: (Re-)initialisation of all symmetry stuff for point group C_1.


----------------------------------------------------------------------------------------

                                     Primitive cell                                     

  volume of cell :    4183.0453

  direct lattice vectors                    reciprocal lattice vectors
    24.889329807  0.001675656 -0.006330986     0.040177862 -0.000000273  0.000009901
    -0.000641390 24.736515863  3.284773847    -0.000003276  0.040705527 -0.002104534
    -0.001683456  0.353700094  6.841207755     0.000038754 -0.019544568  0.147183512

  length of vectors
    24.889330669 24.953656178  6.850345256     0.040177863  0.040759895  0.148475512

  position of ions in fractional coordinates (direct lattice)
     0.903816756  0.972370265  0.089739746
     0.929095440  0.981423347  0.393991722
     0.903452038  0.809605555  0.916964591
     0.596013085  0.472276599  0.592704007
     0.571507331  0.299816011  0.117331413
     0.070729045  0.799479947  0.113123120
     0.571039641  0.481316085  0.897186360
     0.596588697  0.309343706  0.421282358
     0.428383903  0.480934428  0.396208127
     0.095819912  0.808524249  0.417586435
     0.071624445  0.981006660  0.893605709
     0.429255627  0.299378180  0.616293270
     0.928412416  0.800128847  0.612918776
     0.096744307  0.971502363  0.589721606
     0.404182036  0.308410885  0.920685588
     0.403467825  0.471406706  0.092069371
     0.822111670  0.038656446  0.425520274
     0.843952426  0.081017617  0.071984864
     0.843400828  0.701066769  0.937505927
     0.655593877  0.581041166  0.573369268
     0.656865601  0.200739797  0.440928914
     0.177555172  0.741845390  0.083330331
     0.677963007  0.538923536  0.926747561
     0.678653988  0.243001815  0.087219314
     0.321165617  0.537880836  0.425385965
     0.155481156  0.699745131  0.436889236
     0.157152566  0.079888959  0.570454778
     0.344314007  0.199718180  0.939167577
     0.821231661  0.742969902  0.583699634
     0.178841038  0.037814723  0.924518401
     0.322299148  0.242071494  0.585652101
     0.343090150  0.579841608  0.071514576
     0.779713227  0.080239124  0.424810345
     0.801968412  0.122437977  0.080933101
     0.801355777  0.659620507  0.929853894
     0.697726386  0.622394188  0.580934416
     0.698877651  0.159323011  0.432158940
     0.220001281  0.700273570  0.084947879
     0.720389984  0.580530322  0.924866694
     0.721094910  0.201478883  0.088133966
     0.278603707  0.579352488  0.423499119
     0.197555697  0.658341810  0.428915687
     0.199142011  0.121314174  0.579245506
     0.302306266  0.158302779  0.930347944
     0.778760890  0.701409603  0.585744994
     0.221388357  0.079264249  0.923392955
     0.279956709  0.200443824  0.586407932
     0.301003461  0.621233052  0.079405134
     0.748404179  0.079498576  0.593882511
     0.792643379  0.163075640  0.915625134
     0.792178001  0.619158137  0.095830984
     0.706914489  0.662840338  0.414955077
     0.708208307  0.118676077  0.597495242
     0.251401845  0.700845703  0.916200270
     0.751929476  0.579970901  0.093367855
     0.752429778  0.202232881  0.919136788
     0.247111491  0.578701581  0.592059668
     0.206808038  0.617827796  0.594698406
     0.208470559  0.161902221  0.413807223
     0.293006687  0.117699039  0.095757172
     0.747225265  0.701970169  0.417243174
     0.252761238  0.078554775  0.092385742
     0.248629793  0.201122003  0.417310133
     0.291664016  0.661683603  0.913504959
     0.892350254  0.001104919  0.242707469
     0.891781797  0.780677209  0.764751380
     0.607560773  0.501093734  0.745361612
     0.608205284  0.280396780  0.269113262
     0.107264159  0.779655480  0.265005674
     0.391733273  0.500329457  0.244222134
     0.108406400  0.000360097  0.742193743
     0.392686992  0.279591063  0.767977081
     0.770827795  0.120879670  0.254620081
     0.770014585  0.660981965  0.756635187
     0.729107582  0.620993050  0.754062089
     0.729990555  0.160871148  0.258394526
     0.228842367  0.659788056  0.255627370
     0.269765603  0.619823997  0.252774510
     0.230280455  0.119824026  0.753008355
     0.271128686  0.159821662  0.756637400
     0.989708972  0.890700301  0.003146484
     0.010301490  0.890496469  0.503188164
     0.510275364  0.390535998  0.506644496
     0.489804162  0.390284849  0.006605101
     0.317612896  0.117311892  0.227532404
     0.744281109  0.548508302  0.222999132
     0.744630185  0.233791767  0.789933961
     0.756181584  0.047914020  0.723046385
     0.754914450  0.733383782  0.287518954
     0.682167447  0.663091614  0.283618595
     0.182113487  0.617494861  0.726136417
     0.183912626  0.162220113  0.281949879
     0.816870829  0.618935831  0.227306740
     0.256372014  0.232673020  0.288044514
     0.254850960  0.547222741  0.721584954
     0.243645643  0.732276573  0.786554224
     0.316280320  0.661920742  0.781923575
     0.683654769  0.118300027  0.729323463
     0.817231363  0.163467814  0.783898337
     0.244966297  0.047029848  0.221674840
     0.566145021  0.492342737  0.041995720
     0.434202153  0.288349615  0.471511114
     0.385112919  0.474226514  0.946807193
     0.114172157  0.805390887  0.563000715
     0.066728280  0.992209762  0.038145443
     0.385811086  0.305286299  0.065985452
     0.885334091  0.975473331  0.944560545
     0.933266841  0.788944343  0.468339994
     0.115206728  0.974321647  0.444688607
     0.614344355  0.475387824  0.447350429
     0.566609303  0.288586690  0.972835608
     0.934107321  0.992421085  0.538831552
     0.615011166  0.306507858  0.566447280
     0.433200969  0.492164473  0.540749354
     0.065756220  0.788413673  0.968393466
     0.885077962  0.806727925  0.062152539
     0.944766784  0.937499219  0.147598085
     0.960335671  0.943205119  0.335367667
     0.944434829  0.844331733  0.858313432
     0.555215040  0.437295197  0.651144058
     0.540135857  0.338073549  0.174990135
     0.039612951  0.837892959  0.171119458
     0.539827382  0.442983576  0.839058085
     0.555595386  0.344081851  0.362535080
     0.459845204  0.442719008  0.338632857
     0.055084907  0.843595506  0.358983852
     0.040163822  0.942865874  0.835481932
     0.460417433  0.337728368  0.674495451
     0.959822811  0.838357050  0.670709971
     0.055648338  0.936873602  0.647973354
     0.444973074  0.343415772  0.862341417
     0.444487184  0.436721032  0.150953095
     0.851942387  0.041178329  0.246673667
     0.851290343  0.740634839  0.762018712
     0.647902575  0.541274898  0.748439929
     0.648746426  0.240426457  0.265876721
     0.147596554  0.739466581  0.261782655
     0.351147283  0.540286960  0.246961075
     0.148991611  0.040277782  0.745638863
     0.352293916  0.239486549  0.764282036
     0.831578937  0.003279642  0.571604642
     0.870863543  0.080247324  0.921963076
     0.870437926  0.702083560  0.087138890
     0.628332731  0.580232842  0.424117956
     0.630024876  0.201623104  0.591027273
     0.168200893  0.777125164  0.936851373
     0.668672367  0.503665613  0.073319315
     0.669180617  0.278346774  0.941055000
     0.330632632  0.502692668  0.572026414
     0.128434484  0.700636762  0.586500950
     0.130373411  0.078945861  0.420158901
     0.371229695  0.200581408  0.089217274
     0.830557820  0.778172220  0.437011075
     0.169272855  0.002593990  0.070919958
     0.331577913  0.277538365  0.439702925
     0.370068133  0.578896498  0.921794511

  ion indices of the primitive-cell ions
   primitive index   ion index
                 1           1
                 2           2
                 3           3
                 4           4
                 5           5
                 6           6
                 7           7
                 8           8
                 9           9
                10          10
                11          11
                12          12
                13          13
                14          14
                15          15
                16          16
                17          17
                18          18
                19          19
                20          20
                21          21
                22          22
                23          23
                24          24
                25          25
                26          26
                27          27
                28          28
                29          29
                30          30
                31          31
                32          32
                33          33
                34          34
                35          35
                36          36
                37          37
                38          38
                39          39
                40          40
                41          41
                42          42
                43          43
                44          44
                45          45
                46          46
                47          47
                48          48
                49          49
                50          50
                51          51
                52          52
                53          53
                54          54
                55          55
                56          56
                57          57
                58          58
                59          59
                60          60
                61          61
                62          62
                63          63
                64          64
                65          65
                66          66
                67          67
                68          68
                69          69
                70          70
                71          71
                72          72
                73          73
                74          74
                75          75
                76          76
                77          77
                78          78
                79          79
                80          80
                81          81
                82          82
                83          83
                84          84
                85          85
                86          86
                87          87
                88          88
                89          89
                90          90
                91          91
                92          92
                93          93
                94          94
                95          95
                96          96
                97          97
                98          98
                99          99
               100         100
               101         101
               102         102
               103         103
               104         104
               105         105
               106         106
               107         107
               108         108
               109         109
               110         110
               111         111
               112         112
               113         113
               114         114
               115         115
               116         116
               117         117
               118         118
               119         119
               120         120
               121         121
               122         122
               123         123
               124         124
               125         125
               126         126
               127         127
               128         128
               129         129
               130         130
               131         131
               132         132
               133         133
               134         134
               135         135
               136         136
               137         137
               138         138
               139         139
               140         140
               141         141
               142         142
               143         143
               144         144
               145         145
               146         146
               147         147
               148         148
               149         149
               150         150
               151         151
               152         152
               153         153
               154         154
               155         155
               156         156

----------------------------------------------------------------------------------------

 
 

Automatic generation of k-mesh.
 generate k-points for:    1    1    4
Space group operators:
 irot       det(A)        alpha          n_x          n_y          n_z        tau_x        tau_y        tau_z
    1     1.000000     0.000000     1.000000     0.000000     0.000000     0.000000     0.000000     0.000000
 
 Subroutine IBZKPT returns following result:
 ===========================================
 
 Found      3 irreducible k-points:
 
 Following reciprocal coordinates:
            Coordinates               Weight
  0.000000  0.000000  0.000000      1.000000
  0.000000 -0.000000  0.250000      2.000000
  0.000000 -0.000000  0.500000      1.000000
 
 Following cartesian coordinates:
            Coordinates               Weight
  0.000000  0.000000  0.000000      1.000000
  0.000010 -0.004886  0.036796      2.000000
  0.000019 -0.009772  0.073592      1.000000
 


--------------------------------------------------------------------------------------------------------




 Dimension of arrays:
   k-points           NKPTS =      3   k-points in BZ     NKDIM =      3   number of bands    NBANDS=    384
   number of dos      NEDOS =    301   number of ions     NIONS =    156
   non local maximal  LDIM  =      6   non local SUM 2l+1 LMDIM =     18
   total plane-waves  NPLWV = 945000
   max r-space proj   IRMAX =   2357   max aug-charges    IRDMAX=   8246
   dimension x,y,z NGX =   150 NGY =  150 NGZ =   42
   dimension x,y,z NGXF=   300 NGYF=  300 NGZF=   84
   support grid    NGXF=   300 NGYF=  300 NGZF=   84
   ions per type =              80   4  32  24  16
   NGX,Y,Z   is equivalent  to a cutoff of  10.02,  9.99, 10.19 a.u.
   NGXF,Y,Z  is equivalent  to a cutoff of  20.04, 19.99, 20.39 a.u.

 SYSTEM =  flex_MOF                                
 POSCAR =  FeH_exp1                                

 Startparameter for this run:
   NWRITE =      2    write-flag & timer
   PREC   = normal    normal or accurate (medium, high low for compatibility)
   ISTART =      0    job   : 0-new  1-cont  2-samecut
   ICHARG =      2    charge: 1-file 2-atom 10-const
   ISPIN  =      2    spin polarized calculation?
   LNONCOLLINEAR =      F non collinear calculations
   LSORBIT =      F    spin-orbit coupling
   INIWAV =      1    electr: 0-lowe 1-rand  2-diag
   LASPH  =      F    aspherical Exc in radial PAW
   METAGGA=      F    non-selfconsistent MetaGGA calc.

 Electronic Relaxation 1
   ENCUT  =  600.0 eV  44.10 Ry    6.64 a.u.  49.71 49.84 13.68*2*pi/ulx,y,z
   ENINI  =  600.0     initial cutoff
   ENAUG  =  644.9 eV  augmentation charge cutoff
   NELM   =    300;   NELMIN=  3; NELMDL= -8     # of ELM steps 
   EDIFF  = 0.1E-05   stopping-criterion for ELM
   LREAL  =      T    real-space projection
   NLSPLINE    = F    spline interpolate recip. space projectors
   LCOMPAT=      F    compatible to vasp.4.4
   GGA_COMPAT  = T    GGA compatible to vasp.4.4-vasp.4.6
   LMAXPAW     = -100 max onsite density
   LMAXMIX     =    2 max onsite mixed and CHGCAR
   VOSKOWN=      0    Vosko Wilk Nusair interpolation
   ROPT   =   -0.00050  -0.00050  -0.00050  -0.00050
   ROPT   =   -0.00050
 Ionic relaxation
   EDIFFG = -.1E-01   stopping-criterion for IOM
   NSW    =   1000    number of steps for IOM
   NBLOCK =      1;   KBLOCK =   1000    inner block; outer block 
   IBRION =      2    ionic relax: 0-MD 1-quasi-New 2-CG
   NFREE  =      1    steps in history (QN), initial steepest desc. (CG)
   ISIF   =      4    stress and relaxation
   IWAVPR =     11    prediction:  0-non 1-charg 2-wave 3-comb
   ISYM   =      0    0-nonsym 1-usesym 2-fastsym
   LCORR  =      T    Harris-Foulkes like correction to forces

   POTIM  = 0.5000    time-step for ionic-motion
   TEIN   =    0.0    initial temperature
   TEBEG  =    0.0;   TEEND  =   0.0 temperature during run
   SMASS  =  -3.00    Nose mass-parameter (am)
   estimated Nose-frequenzy (Omega)   =  0.10E-29 period in steps = 0.13E+47 mass=  -0.142E-25a.u.
   SCALEE = 1.0000    scale energy and forces
   NPACO  =    256;   APACO  = 16.0  distance and # of slots for P.C.
   PSTRESS=    0.0 pullay stress

  Mass of Ions in am
   POMASS =  12.01 55.85  1.00 14.00 16.00
  Ionic Valenz
   ZVAL   =   4.00  8.00  1.00  5.00  6.00
  Atomic Wigner-Seitz radii
   RWIGS  =  -1.00 -1.00 -1.00 -1.00 -1.00
  virtual crystal weights 
   VCA    =   1.00  1.00  1.00  1.00  1.00
   NELECT =     600.0000    total number of electrons
   NUPDOWN=      -1.0000    fix difference up-down

 DOS related values:
   EMIN   =  10.00;   EMAX   =-10.00  energy-range for DOS
   EFERMI =   0.00
   ISMEAR =     0;   SIGMA  =   0.05  broadening in eV -4-tet -1-fermi 0-gaus

 Electronic relaxation 2 (details)
   IALGO  =     38    algorithm
   LDIAG  =      T    sub-space diagonalisation (order eigenvalues)
   LSUBROT=      F    optimize rotation matrix (better conditioning)
   TURBO    =      0    0=normal 1=particle mesh
   IRESTART =      0    0=no restart 2=restart with 2 vectors
   NREBOOT  =      0    no. of reboots
   NMIN     =      0    reboot dimension
   EREF     =   0.00    reference energy to select bands
   IMIX   =      4    mixing-type and parameters
     AMIX     =   0.40;   BMIX     =  1.00
     AMIX_MAG =   1.60;   BMIX_MAG =  1.00
     AMIN     =   0.10
     WC   =   100.;   INIMIX=   1;  MIXPRE=   1;  MAXMIX= -45

 Intra band minimization:
   WEIMIN = 0.0010     energy-eigenvalue tresh-hold
   EBREAK =  0.65E-09  absolut break condition
   DEPER  =   0.30     relativ break condition  

   TIME   =   0.40     timestep for ELM

  volume/ion in A,a.u.               =      26.81       180.95
  Fermi-wavevector in a.u.,A,eV,Ry     =   0.856961  1.619421  9.991876  0.734382
  Thomas-Fermi vector in A             =   1.973942
 
 Write flags
   LWAVE        =      T    write WAVECAR
   LDOWNSAMPLE  =      F    k-point downsampling of WAVECAR
   LCHARG       =      T    write CHGCAR
   LVTOT        =      F    write LOCPOT, total local potential
   LVHAR        =      F    write LOCPOT, Hartree potential only
   LELF         =      F    write electronic localiz. function (ELF)
   LORBIT       =     11    0 simple, 1 ext, 2 COOP (PROOUT), +10 PAW based schemes


 Dipole corrections
   LMONO  =      F    monopole corrections only (constant potential shift)
   LDIPOL =      F    correct potential (dipole corrections)
   IDIPOL =      0    1-x, 2-y, 3-z, 4-all directions 
   EPSILON=  1.0000000 bulk dielectric constant

 Exchange correlation treatment:
   GGA     =    PE    GGA type
   LEXCH   =     8    internal setting for exchange type
   VOSKOWN=      0    Vosko Wilk Nusair interpolation
   LHFCALC =     F    Hartree Fock is set to
   LHFONE  =     F    Hartree Fock one center treatment
   AEXX    =    0.0000 exact exchange contribution

 Linear response parameters
   LEPSILON=     F    determine dielectric tensor
   LRPA    =     F    only Hartree local field effects (RPA)
   LNABLA  =     F    use nabla operator in PAW spheres
   LVEL    =     F    velocity operator in full k-point grid
   LINTERFAST=   F  fast interpolation
   KINTER  =     0    interpolate to denser k-point grid
   CSHIFT  =0.1000    complex shift for real part using Kramers Kronig
   OMEGAMAX=  -1.0    maximum frequency
   DEG_THRESHOLD= 0.2000000E-02 threshold for treating states as degnerate
   RTIME   =   -0.100 relaxation time in fs
  (WPLASMAI=    0.000 imaginary part of plasma frequency in eV, 0.658/RTIME)
   DFIELD  = 0.0000000 0.0000000 0.0000000 field for delta impulse in time
 
 Orbital magnetization related:
   ORBITALMAG=     F  switch on orbital magnetization
   LCHIMAG   =     F  perturbation theory with respect to B field
   DQ        =  0.001000  dq finite difference perturbation B field
   LLRAUG    =     F  two centre corrections for induced B field



--------------------------------------------------------------------------------------------------------


 conjugate gradient relaxation of ions
 charge density and potential will be updated during run
 spin polarized calculation
 Variant of blocked Davidson
 Davidson routine will perform the subspace rotation
 perform sub-space diagonalisation
    after iterative eigenvector-optimisation
 modified Broyden-mixing scheme, WC =      100.0
 initial mixing is a Kerker type mixing with AMIX =  0.4000 and BMIX =      1.0000
 Hartree-type preconditioning will be used
 using additional bands           84
 real space projection scheme for non local part
 use partial core corrections
 calculate Harris-corrections to forces 
   (improved forces if not selfconsistent)
 use gradient corrections 
 use of overlap-Matrix (Vanderbilt PP)
 Gauss-broadening in eV      SIGMA  =   0.05


--------------------------------------------------------------------------------------------------------


  energy-cutoff  :      600.00
  volume of cell :     4183.05
      direct lattice vectors                 reciprocal lattice vectors
    24.889329807  0.001675656 -0.006330986     0.040177862 -0.000000273  0.000009901
    -0.000641390 24.736515863  3.284773847    -0.000003276  0.040705527 -0.002104534
    -0.001683456  0.353700094  6.841207755     0.000038754 -0.019544568  0.147183512

  length of vectors
    24.889330669 24.953656178  6.850345256     0.040177863  0.040759895  0.148475512


 
 k-points in units of 2pi/SCALE and weight: read from INCAR                         
   0.00000000  0.00000000  0.00000000       0.250
   0.00000969 -0.00488614  0.03679588       0.500
   0.00001938 -0.00977228  0.07359176       0.250
 
 k-points in reciprocal lattice and weights: read from INCAR                         
   0.00000000  0.00000000  0.00000000       0.250
   0.00000000 -0.00000000  0.25000000       0.500
   0.00000000 -0.00000000  0.50000000       0.250
 
 position of ions in fractional coordinates (direct lattice) 
   0.90381676  0.97237027  0.08973975
   0.92909544  0.98142335  0.39399172
   0.90345204  0.80960555  0.91696459
   0.59601309  0.47227660  0.59270401
   0.57150733  0.29981601  0.11733141
   0.07072905  0.79947995  0.11312312
   0.57103964  0.48131609  0.89718636
   0.59658870  0.30934371  0.42128236
   0.42838390  0.48093443  0.39620813
   0.09581991  0.80852425  0.41758643
   0.07162444  0.98100666  0.89360571
   0.42925563  0.29937818  0.61629327
   0.92841242  0.80012885  0.61291878
   0.09674431  0.97150236  0.58972161
   0.40418204  0.30841089  0.92068559
   0.40346782  0.47140671  0.09206937
   0.82211167  0.03865645  0.42552027
   0.84395243  0.08101762  0.07198486
   0.84340083  0.70106677  0.93750593
   0.65559388  0.58104117  0.57336927
   0.65686560  0.20073980  0.44092891
   0.17755517  0.74184539  0.08333033
   0.67796301  0.53892354  0.92674756
   0.67865399  0.24300181  0.08721931
   0.32116562  0.53788084  0.42538596
   0.15548116  0.69974513  0.43688924
   0.15715257  0.07988896  0.57045478
   0.34431401  0.19971818  0.93916758
   0.82123166  0.74296990  0.58369963
   0.17884104  0.03781472  0.92451840
   0.32229915  0.24207149  0.58565210
   0.34309015  0.57984161  0.07151458
   0.77971323  0.08023912  0.42481035
   0.80196841  0.12243798  0.08093310
   0.80135578  0.65962051  0.92985389
   0.69772639  0.62239419  0.58093442
   0.69887765  0.15932301  0.43215894
   0.22000128  0.70027357  0.08494788
   0.72038998  0.58053032  0.92486669
   0.72109491  0.20147888  0.08813397
   0.27860371  0.57935249  0.42349912
   0.19755570  0.65834181  0.42891569
   0.19914201  0.12131417  0.57924551
   0.30230627  0.15830278  0.93034794
   0.77876089  0.70140960  0.58574499
   0.22138836  0.07926425  0.92339296
   0.27995671  0.20044382  0.58640793
   0.30100346  0.62123305  0.07940513
   0.74840418  0.07949858  0.59388251
   0.79264338  0.16307564  0.91562513
   0.79217800  0.61915814  0.09583098
   0.70691449  0.66284034  0.41495508
   0.70820831  0.11867608  0.59749524
   0.25140185  0.70084570  0.91620027
   0.75192948  0.57997090  0.09336786
   0.75242978  0.20223288  0.91913679
   0.24711149  0.57870158  0.59205967
   0.20680804  0.61782780  0.59469841
   0.20847056  0.16190222  0.41380722
   0.29300669  0.11769904  0.09575717
   0.74722526  0.70197017  0.41724317
   0.25276124  0.07855477  0.09238574
   0.24862979  0.20112200  0.41731013
   0.29166402  0.66168360  0.91350496
   0.89235025  0.00110492  0.24270747
   0.89178180  0.78067721  0.76475138
   0.60756077  0.50109373  0.74536161
   0.60820528  0.28039678  0.26911326
   0.10726416  0.77965548  0.26500567
   0.39173327  0.50032946  0.24422213
   0.10840640  0.00036010  0.74219374
   0.39268699  0.27959106  0.76797708
   0.77082780  0.12087967  0.25462008
   0.77001458  0.66098196  0.75663519
   0.72910758  0.62099305  0.75406209
   0.72999056  0.16087115  0.25839453
   0.22884237  0.65978806  0.25562737
   0.26976560  0.61982400  0.25277451
   0.23028046  0.11982403  0.75300835
   0.27112869  0.15982166  0.75663740
   0.98970897  0.89070030  0.00314648
   0.01030149  0.89049647  0.50318816
   0.51027536  0.39053600  0.50664450
   0.48980416  0.39028485  0.00660510
   0.31761290  0.11731189  0.22753240
   0.74428111  0.54850830  0.22299913
   0.74463018  0.23379177  0.78993396
   0.75618158  0.04791402  0.72304639
   0.75491445  0.73338378  0.28751895
   0.68216745  0.66309161  0.28361859
   0.18211349  0.61749486  0.72613642
   0.18391263  0.16222011  0.28194988
   0.81687083  0.61893583  0.22730674
   0.25637201  0.23267302  0.28804451
   0.25485096  0.54722274  0.72158495
   0.24364564  0.73227657  0.78655422
   0.31628032  0.66192074  0.78192357
   0.68365477  0.11830003  0.72932346
   0.81723136  0.16346781  0.78389834
   0.24496630  0.04702985  0.22167484
   0.56614502  0.49234274  0.04199572
   0.43420215  0.28834961  0.47151111
   0.38511292  0.47422651  0.94680719
   0.11417216  0.80539089  0.56300071
   0.06672828  0.99220976  0.03814544
   0.38581109  0.30528630  0.06598545
   0.88533409  0.97547333  0.94456054
   0.93326684  0.78894434  0.46833999
   0.11520673  0.97432165  0.44468861
   0.61434436  0.47538782  0.44735043
   0.56660930  0.28858669  0.97283561
   0.93410732  0.99242108  0.53883155
   0.61501117  0.30650786  0.56644728
   0.43320097  0.49216447  0.54074935
   0.06575622  0.78841367  0.96839347
   0.88507796  0.80672792  0.06215254
   0.94476678  0.93749922  0.14759808
   0.96033567  0.94320512  0.33536767
   0.94443483  0.84433173  0.85831343
   0.55521504  0.43729520  0.65114406
   0.54013586  0.33807355  0.17499014
   0.03961295  0.83789296  0.17111946
   0.53982738  0.44298358  0.83905808
   0.55559539  0.34408185  0.36253508
   0.45984520  0.44271901  0.33863286
   0.05508491  0.84359551  0.35898385
   0.04016382  0.94286587  0.83548193
   0.46041743  0.33772837  0.67449545
   0.95982281  0.83835705  0.67070997
   0.05564834  0.93687360  0.64797335
   0.44497307  0.34341577  0.86234142
   0.44448718  0.43672103  0.15095310
   0.85194239  0.04117833  0.24667367
   0.85129034  0.74063484  0.76201871
   0.64790257  0.54127490  0.74843993
   0.64874643  0.24042646  0.26587672
   0.14759655  0.73946658  0.26178265
   0.35114728  0.54028696  0.24696107
   0.14899161  0.04027778  0.74563886
   0.35229392  0.23948655  0.76428204
   0.83157894  0.00327964  0.57160464
   0.87086354  0.08024732  0.92196308
   0.87043793  0.70208356  0.08713889
   0.62833273  0.58023284  0.42411796
   0.63002488  0.20162310  0.59102727
   0.16820089  0.77712516  0.93685137
   0.66867237  0.50366561  0.07331931
   0.66918062  0.27834677  0.94105500
   0.33063263  0.50269267  0.57202641
   0.12843448  0.70063676  0.58650095
   0.13037341  0.07894586  0.42015890
   0.37122969  0.20058141  0.08921727
   0.83055782  0.77817222  0.43701108
   0.16927286  0.00259399  0.07091996
   0.33157791  0.27753837  0.43970293
   0.37006813  0.57889650  0.92179451
 
 position of ions in cartesian coordinates  (Angst):
  22.49461859 24.08630793  3.80222261
  23.12327009 24.41790595  5.91325088
  22.48425279 20.35266499  8.92679668
  14.83306554 11.89311576  5.60235972
  14.22404462  7.45886128  1.78389816
   1.75969532 19.81647856  3.39956180
  14.21097488 12.22437475  7.71523753
  14.84778523  7.80209277  3.89442725
  10.66121277 12.03749878  4.28759085
   2.38367183 20.14793383  5.51200823
   1.78055087 24.58287524  9.33527387
  10.68265536  7.62427537  5.19686230
  23.10601781 20.01074503  6.81546923
   2.40628508 24.24033030  7.22496109
  10.05807224  7.95533461  7.30910252
  10.04158640 11.69420048  2.17577576
  20.46106735  1.10810994  3.03284550
  21.00523712  2.03096880  0.75324491
  20.98965347 17.67495844  8.71117904
  16.31595431 14.57683334  5.82697655
  16.34807354  5.12266046  3.67171253
   4.41861314 18.38044172  3.00575034
  16.87213908 13.66001732  8.10602236
  16.89094024  6.04300491  1.39059491
   7.99253585 13.45629504  4.67493737
   3.86863748 17.46404482  5.28637018
   3.91041047  2.17820776  4.16402188
   8.56803572  5.27309254  7.07888972
  20.43844650 18.58631748  6.42849936
   4.44965294  1.26270642  6.44790302
   8.02066862  6.19569061  4.79967734
   8.53879161 14.36913074  2.39172252
  19.40577305  2.13639835  3.16484685
  19.96024154  3.05865884  0.95078397
  19.94321978 16.64694533  8.52295449
  17.36456495 15.60250940  6.01429989
  17.39376663  4.09512193  3.47540457
   5.47509230 17.35274298  2.87999357
  17.92809457 14.68863009  8.22955524
  17.94729143  5.01626689  1.26019010
   6.93317501 14.48142054  4.79852352
   4.91588460 16.43712118  5.09555456
   4.95545825  3.20610287  4.35996771
   7.52253264  4.24542992  6.88277850
  19.38140069 17.55891276  6.30624479
   5.50860251  2.28769650  6.57608657
   6.96681910  5.16616348  4.66837872
   7.49124230 15.39573122  2.58193145
  18.62622768  2.17782815  4.31927034
  19.72671647  4.35910805  6.79463015
  19.71622108 15.35103793  2.68437886
  17.59350417 16.54431474  5.01159903
  17.62574815  3.14815351  4.47292950
   6.25523155 17.66096225  8.56844441
  18.71449155 14.38074360  2.53906169
  18.72579586  5.32889646  6.94753138
   6.14907153 14.52488648  5.94974255
   5.14591604 15.49359851  6.09657064
   5.18789203  4.15160984  3.36143354
   7.29250337  2.94582445  1.03985441
  18.59678341 17.51312727  5.15552982
   6.29085189  1.97627181  0.88846450
   6.18739740  5.12307688  3.51397154
   7.25735965 16.69134245  8.42111168
  22.20959049  0.11467276  1.65839217
  22.19406313 19.58322112  7.79052529
  15.12020427 12.65996564  6.74130677
  15.13718901  7.03224392  2.75824921
   2.66878685 19.37987241  4.37327171
   9.74924657 12.46344535  3.31176341
   2.69691297  0.27160318  5.07799811
   9.77224387  7.18840034  6.16979808
  19.18488105  3.08149266  2.13409115
  19.16344925 16.61930307  7.34259983
  18.14533133 15.62913800  7.19390117
  18.16843751  4.07200909  2.29153441
   5.69487962 16.41165661  3.91460570
   6.71346197 15.42214453  3.76355671
   5.73018169  3.23075393  5.54362352
   6.74683502  4.22150812  5.69957516
  24.63261644 22.03559345  2.94100897
   0.25497893 22.20577499  6.36742906
  12.69930842  9.84055517  4.74565214
  12.19063588  9.65744432  1.32408339
   7.90471384  2.98289791  1.93992868
  18.52393076 13.64830628  3.32259708
  18.53186648  6.06384120  6.16734118
  18.81960489  1.44223460  5.09910988
  18.78836030 18.24432000  4.37119741
  16.97778782 16.50403524  4.11408093
   4.53106416 15.53181110  6.99482810
   4.57688330  4.11279427  2.46056974
  20.33058783 15.39208322  3.58294527
   6.38029346  5.85783080  2.73322753
   6.34150386 13.79203572  6.73240207
   6.06238296 18.39258362  7.78480127
   7.87026430 16.65070935  7.52155920
  17.01440536  3.18543785  5.37371396
  20.33891641  4.32225849  5.89459230
   6.09664361  1.24217147  1.66945517
  14.09058367 12.19464647  1.90095173
  10.80602187  7.30026592  4.17011984
   9.58330438 12.06624281  8.03259341
   2.84020411 20.12188916  6.49640895
   1.66012156 24.55741638  3.51972312
   9.60227247  7.57570492  1.45177407
  22.03315640 24.46538619  9.66053917
  23.22709176 19.68295000  5.78960645
   2.86604471 24.25880233  6.24190404
  15.28956127 11.91869577  4.61806931
  14.10070298  7.48367072  7.59972532
  23.24776157 24.74118992  6.94022360
  15.30606556  7.78331950  4.87809889
  10.78085579 12.36642330  5.31328508
   1.63449231 19.84523837  9.21432520
  22.02837525 19.97910456  3.06951381
  23.51376231 23.24425286  4.08324077
  23.90094169 23.45183715  5.38645552
  23.50436347 21.19099341  8.63936010
  13.81755358 11.04839965  5.88751255
  13.44310806  8.42556082  2.30421943
   0.98511432 20.78714381  3.92270185
  13.43424510 11.25554975  7.19185390
  13.82756581  8.64054585  3.60689140
  11.44438491 11.07187078  3.76797828
   1.36988101 20.99467854  5.22655482
   0.99763936 23.61879399  8.81255236
  11.45812924  8.59356373  5.72080993
  23.88767967 20.97687097  7.33620294
   1.38335810 23.40427021  7.50998593
  11.07340962  8.80066555  7.02468282
  11.06245389 10.85709368  2.46441727
  21.20383338  1.10728446  1.81741367
  21.18628826 18.59167799  7.64055676
  16.12425374 13.65506403  6.89409681
  16.14626195  6.04244058  2.60455722
   3.67266433 18.38466667  4.21895558
   8.73905826 13.45275552  3.46200939
   3.70702026  1.26031418  5.23243051
   8.76691924  6.19497976  6.01304098
  20.69647805  0.28469698  3.91597428
  21.67360638  2.31259689  6.56542183
  21.66401960 17.39938072  2.89681024
  15.63769443 14.50400234  4.80343475
  15.67977264  5.19755522  4.70163798
   4.18433191 19.55501520  8.96081041
  16.64236060 12.48598594  2.15178694
  16.65369433  7.21930195  7.34802239
   8.22793923 12.63774498  5.56249004
   3.19521151 17.53897304  6.31299504
   3.24414886  2.10167424  3.13288824
   9.23937946  4.99386340  1.26686822
  20.67079270 19.40523205  5.54054506
   4.21296686  0.08953430  0.49262717
   8.25183381  7.02141075  3.91765061
   9.20882472 14.64654132  8.20538894
 


--------------------------------------------------------------------------------------------------------


 k-point  1 :   0.0000 0.0000 0.0000  plane waves:  139667
 k-point  2 :   0.0000-0.0000 0.2500  plane waves:  139624
 k-point  3 :   0.0000-0.0000 0.5000  plane waves:  139570

 maximum and minimum number of plane-waves per node :     35032    34812

 maximum number of plane-waves:    139667
 maximum index in each direction: 
   IXMAX=   49   IYMAX=   49   IZMAX=   13
   IXMIN=  -49   IYMIN=  -49   IZMIN=  -14


 real space projection operators:
  total allocation   :      11602.41 KBytes
  max/ min on nodes  :       2935.01       2865.26


 parallel 3D FFT for wavefunctions:
    minimum data exchange during FFTs selected (reduces bandwidth)
 parallel 3D FFT for charge:
    minimum data exchange during FFTs selected (reduces bandwidth)


 total amount of memory used by VASP MPI-rank0   115643. kBytes
=======================================================================

   base      :      30000. kBytes
   nonlr-proj:       6437. kBytes
   fftplans  :       9904. kBytes
   grid      :      27355. kBytes
   one-center:       1213. kBytes
   wavefun   :      40734. kBytes
 
     INWAV:  cpu time    0.0002: real time    0.0002
 Broyden mixing: mesh for mixing (old mesh)
   NGX = 99   NGY = 99   NGZ = 27
  (NGX  =300   NGY  =300   NGZ  = 84)
  gives a total of 264627 points

 initial charge density was supplied:
 charge density of overlapping atoms calculated
 number of electron     600.0000000 magnetization      -0.0000000
 keeping initial charge density in first step


--------------------------------------------------------------------------------------------------------


 Maximum index for non-local projection operator          665
 Maximum index for augmentation-charges          448 (set IRDMAX)


--------------------------------------------------------------------------------------------------------


 First call to EWALD:  gamma=   0.110
 Maximum number of real-space cells 2x 2x 6
 Maximum number of reciprocal cells 4x 4x 1

    FEWALD:  cpu time    0.0181: real time    0.0181


--------------------------------------- Iteration      1(   1)  ---------------------------------------


    POTLOK:  cpu time    0.3986: real time    0.4443
    SETDIJ:  cpu time    0.0795: real time    0.0800
     EDDAV:  cpu time   17.8511: real time   18.0024
       DOS:  cpu time    0.0061: real time    0.0073
    --------------------------------------------
      LOOP:  cpu time   18.3353: real time   18.5341

 eigenvalue-minimisations  :  4608
 total energy-change (2. order) : 0.5668458E+04  (-0.2620148E+05)
 number of electron     600.0000000 magnetization      -0.0000000
 augmentation part      600.0000000 magnetization      -0.0000000

 Free energy of the ion-electron system (eV)
  ---------------------------------------------------
  alpha Z        PSCENC =       423.73719215
  Ewald energy   TEWEN  =     41978.38792599
  -Hartree energ DENC   =    -64903.68865435
  -exchange      EXHF   =         0.00000000
  -V(xc)+E(xc)   XCENC  =      2063.46477913
  PAW double counting   =     21422.65208726   -21556.96843230
  entropy T*S    EENTRO =        -0.05528060
  eigenvalues    EBANDS =     -1574.67600495
  atomic energy  EATOM  =     27815.60422923
  Solvation  Ediel_sol  =         0.00000000
  ---------------------------------------------------
  free energy    TOTEN  =      5668.45784155 eV

  energy without entropy =     5668.51312216  energy(sigma->0) =     5668.48548186


--------------------------------------------------------------------------------------------------------




--------------------------------------- Iteration      1(   2)  ---------------------------------------


     EDDAV:  cpu time   24.0345: real time   24.0531
       DOS:  cpu time    0.0032: real time    0.0032
    --------------------------------------------
      LOOP:  cpu time   24.0376: real time   24.0562

 eigenvalue-minimisations  :  6752
 total energy-change (2. order) :-0.5886844E+04  (-0.5676377E+04)
 number of electron     600.0000000 magnetization      -0.0000000
 augmentation part      600.0000000 magnetization      -0.0000000

 Free energy of the ion-electron system (eV)
  ---------------------------------------------------
  alpha Z        PSCENC =       423.73719215
  Ewald energy   TEWEN  =     41978.38792599
  -Hartree energ DENC   =    -64903.68865435
  -exchange      EXHF   =         0.00000000
  -V(xc)+E(xc)   XCENC  =      2063.46477913
  PAW double counting   =     21422.65208726   -21556.96843230
  entropy T*S    EENTRO =        -0.02504048
  eigenvalues    EBANDS =     -7461.55017366
  atomic energy  EATOM  =     27815.60422923
  Solvation  Ediel_sol  =         0.00000000
  ---------------------------------------------------
  free energy    TOTEN  =      -218.38608704 eV

  energy without entropy =     -218.36104656  energy(sigma->0) =     -218.37356680


--------------------------------------------------------------------------------------------------------




--------------------------------------- Iteration      1(   3)  ---------------------------------------


     EDDAV:  cpu time   20.3407: real time   20.3458
       DOS:  cpu time    0.0049: real time    0.0049
    --------------------------------------------
      LOOP:  cpu time   20.3455: real time   20.3506

 eigenvalue-minimisations  :  5536
 total energy-change (2. order) :-0.1036929E+04  (-0.1027585E+04)
 number of electron     600.0000000 magnetization      -0.0000000
 augmentation part      600.0000000 magnetization      -0.0000000

 Free energy of the ion-electron system (eV)
  ---------------------------------------------------
  alpha Z        PSCENC =       423.73719215
  Ewald energy   TEWEN  =     41978.38792599
  -Hartree energ DENC   =    -64903.68865435
  -exchange      EXHF   =         0.00000000
  -V(xc)+E(xc)   XCENC  =      2063.46477913
  PAW double counting   =     21422.65208726   -21556.96843230
  entropy T*S    EENTRO =        -0.04917553
  eigenvalues    EBANDS =     -8498.45547542
  atomic energy  EATOM  =     27815.60422923
  Solvation  Ediel_sol  =         0.00000000
  ---------------------------------------------------
  free energy    TOTEN  =     -1255.31552385 eV

  energy without entropy =    -1255.26634832  energy(sigma->0) =    -1255.29093609


--------------------------------------------------------------------------------------------------------




--------------------------------------- Iteration      1(   4)  ---------------------------------------


     EDDAV:  cpu time   23.7920: real time   23.7974
       DOS:  cpu time    0.0028: real time    0.0028
    --------------------------------------------
      LOOP:  cpu time   23.7949: real time   23.8003

 eigenvalue-minimisations  :  6880
 total energy-change (2. order) :-0.4530758E+02  (-0.4491824E+02)
 number of electron     600.0000000 magnetization      -0.0000000
 augmentation part      600.0000000 magnetization      -0.0000000

 Free energy of the ion-electron system (eV)
  ---------------------------------------------------
  alpha Z        PSCENC =       423.73719215
  Ewald energy   TEWEN  =     41978.38792599
  -Hartree energ DENC   =    -64903.68865435
  -exchange      EXHF   =         0.00000000
  -V(xc)+E(xc)   XCENC  =      2063.46477913
  PAW double counting   =     21422.65208726   -21556.96843230
  entropy T*S    EENTRO =        -0.04571678
  eigenvalues    EBANDS =     -8543.76651304
  atomic energy  EATOM  =     27815.60422923
  Solvation  Ediel_sol  =         0.00000000
  ---------------------------------------------------
  free energy    TOTEN  =     -1300.62310272 eV

  energy without entropy =    -1300.57738594  energy(sigma->0) =    -1300.60024433


--------------------------------------------------------------------------------------------------------




--------------------------------------- Iteration      1(   5)  ---------------------------------------


     EDDAV:  cpu time   22.1639: real time   22.1689
       DOS:  cpu time    0.0028: real time    0.0028
    --------------------------------------------
      LOOP:  cpu time   22.1666: real time   22.1717

 eigenvalue-minimisations  :  6048
 total energy-change (2. order) :-0.7905203E+00  (-0.7860484E+00)
 number of electron     600.0000000 magnetization      -0.0000000
 augmentation part      600.0000000 magnetization      -0.0000000

 Free energy of the ion-electron system (eV)
  ---------------------------------------------------
  alpha Z        PSCENC =       423.73719215
  Ewald energy   TEWEN  =     41978.38792599
  -Hartree energ DENC   =    -64903.68865435
  -exchange      EXHF   =         0.00000000
  -V(xc)+E(xc)   XCENC  =      2063.46477913
  PAW double counting   =     21422.65208726   -21556.96843230
  entropy T*S    EENTRO =        -0.04591473
  eigenvalues    EBANDS =     -8544.55683540
  atomic energy  EATOM  =     27815.60422923
  Solvation  Ediel_sol  =         0.00000000
  ---------------------------------------------------
  free energy    TOTEN  =     -1301.41362303 eV

  energy without entropy =    -1301.36770830  energy(sigma->0) =    -1301.39066566


--------------------------------------------------------------------------------------------------------




--------------------------------------- Iteration      1(   6)  ---------------------------------------


     EDDAV:  cpu time   24.6234: real time   24.6280
       DOS:  cpu time    0.0036: real time    0.0036
    --------------------------------------------
      LOOP:  cpu time   24.6270: real time   24.6317

 eigenvalue-minimisations  :  7168
 total energy-change (2. order) :-0.4307736E-01  (-0.4299502E-01)
 number of electron     600.0000000 magnetization      -0.0000000
 augmentation part      600.0000000 magnetization      -0.0000000

 Free energy of the ion-electron system (eV)
  ---------------------------------------------------
  alpha Z        PSCENC =       423.73719215
  Ewald energy   TEWEN  =     41978.38792599
  -Hartree energ DENC   =    -64903.68865435
  -exchange      EXHF   =         0.00000000
  -V(xc)+E(xc)   XCENC  =      2063.46477913
  PAW double counting   =     21422.65208726   -21556.96843230
  entropy T*S    EENTRO =        -0.04584215
  eigenvalues    EBANDS =     -8544.59998535
  atomic energy  EATOM  =     27815.60422923
  Solvation  Ediel_sol  =         0.00000000
  ---------------------------------------------------
  free energy    TOTEN  =     -1301.45670039 eV

  energy without entropy =    -1301.41085824  energy(sigma->0) =    -1301.43377932


--------------------------------------------------------------------------------------------------------




--------------------------------------- Iteration      1(   7)  ---------------------------------------


     EDDAV:  cpu time   21.7242: real time   21.7283
       DOS:  cpu time    0.0027: real time    0.0027
    --------------------------------------------
      LOOP:  cpu time   21.7269: real time   21.7309

 eigenvalue-minimisations  :  6144
 total energy-change (2. order) :-0.1017598E-02  (-0.1015253E-02)
 number of electron     600.0000000 magnetization      -0.0000000
 augmentation part      600.0000000 magnetization      -0.0000000

 Free energy of the ion-electron system (eV)
  ---------------------------------------------------
  alpha Z        PSCENC =       423.73719215
  Ewald energy   TEWEN  =     41978.38792599
  -Hartree energ DENC   =    -64903.68865435
  -exchange      EXHF   =         0.00000000
  -V(xc)+E(xc)   XCENC  =      2063.46477913
  PAW double counting   =     21422.65208726   -21556.96843230
  entropy T*S    EENTRO =        -0.04582130
  eigenvalues    EBANDS =     -8544.60102379
  atomic energy  EATOM  =     27815.60422923
  Solvation  Ediel_sol  =         0.00000000
  ---------------------------------------------------
  free energy    TOTEN  =     -1301.45771799 eV

  energy without entropy =    -1301.41189669  energy(sigma->0) =    -1301.43480734


--------------------------------------------------------------------------------------------------------




--------------------------------------- Iteration      1(   8)  ---------------------------------------


     EDDAV:  cpu time   25.2854: real time   25.2951
       DOS:  cpu time    0.0031: real time    0.0031
    CHARGE:  cpu time    0.9782: real time    0.9857
    MIXING:  cpu time    0.0171: real time    0.0199
    --------------------------------------------
      LOOP:  cpu time   26.2839: real time   26.3039

 eigenvalue-minimisations  :  7200
 total energy-change (2. order) :-0.3763584E-04  (-0.3759647E-04)
 number of electron     600.0000028 magnetization      -0.0001074
 augmentation part       32.4140194 magnetization       0.0002775

 Broyden mixing:
  rms(total) = 0.96091E+01    rms(broyden)= 0.96085E+01
  rms(prec ) = 0.10564E+02
  weight for this iteration     100.00

 Free energy of the ion-electron system (eV)
  ---------------------------------------------------
  alpha Z        PSCENC =       423.73719215
  Ewald energy   TEWEN  =     41978.38792599
  -Hartree energ DENC   =    -64903.68865435
  -exchange      EXHF   =         0.00000000
  -V(xc)+E(xc)   XCENC  =      2063.46477913
  PAW double counting   =     21422.65208726   -21556.96843230
  entropy T*S    EENTRO =        -0.04582112
  eigenvalues    EBANDS =     -8544.60106161
  atomic energy  EATOM  =     27815.60422923
  Solvation  Ediel_sol  =         0.00000000
  ---------------------------------------------------
  free energy    TOTEN  =     -1301.45775562 eV

  energy without entropy =    -1301.41193451  energy(sigma->0) =    -1301.43484507


--------------------------------------------------------------------------------------------------------




--------------------------------------- Iteration      1(   9)  ---------------------------------------


    POTLOK:  cpu time    0.3511: real time    0.3512
    SETDIJ:  cpu time    0.0588: real time    0.0593
     EDDAV:  cpu time   26.5689: real time   26.5727
       DOS:  cpu time    0.0048: real time    0.0049
    CHARGE:  cpu time    0.8787: real time    0.8823
    MIXING:  cpu time    0.0195: real time    0.0298
    --------------------------------------------
      LOOP:  cpu time   27.8818: real time   27.9003

 eigenvalue-minimisations  :  7360
 total energy-change (2. order) :-0.3245626E+03  (-0.3973442E+03)
 number of electron     600.0000146 magnetization       0.0073187
 augmentation part       55.9340294 magnetization      -0.6431227

 Broyden mixing:
  rms(total) = 0.33168E+02    rms(broyden)= 0.33168E+02
  rms(prec ) = 0.33643E+02
  weight for this iteration     100.00

 eigenvalues of (default mixing * dielectric matrix)
  average eigenvalue GAMMA=   0.0892
  0.0892

 Free energy of the ion-electron system (eV)
  ---------------------------------------------------
  alpha Z        PSCENC =       423.73719215
[...]
     15.28956     11.91870      4.61807        -0.000705     -0.001820     -0.004598
     14.10070      7.48367      7.59973        -0.000190      0.000599     -0.005031
     23.24776     24.74119      6.94022        -0.000226     -0.001100      0.001984
     15.30607      7.78332      4.87810        -0.001474      0.000928      0.004106
     10.78086     12.36642      5.31329        -0.000348     -0.000889      0.003416
      1.63449     19.84524      9.21433         0.001111      0.001647     -0.004746
     22.02838     19.97910      3.06951         0.001754      0.002210      0.005771
     23.51376     23.24425      4.08324        -0.002078      0.001811      0.000410
     23.90094     23.45184      5.38646        -0.000677      0.002489     -0.002242
     23.50436     21.19099      8.63936        -0.002116     -0.003225      0.001053
     13.81755     11.04840      5.88751         0.001608      0.000296      0.000113
     13.44311      8.42556      2.30422        -0.000335     -0.001469     -0.001008
      0.98511     20.78714      3.92270         0.001460     -0.000456      0.000132
     13.43425     11.25555      7.19185        -0.000834      0.000562     -0.001284
     13.82757      8.64055      3.60689        -0.000661     -0.002715      0.000187
     11.44438     11.07187      3.76798         0.000874      0.000879     -0.001027
      1.36988     20.99468      5.22655         0.001919     -0.002877     -0.001330
      0.99764     23.61879      8.81255         0.000939      0.000953     -0.000900
     11.45813      8.59356      5.72081        -0.000243     -0.000600      0.000212
     23.88768     20.97687      7.33620         0.000394     -0.000414      0.004218
      1.38336     23.40427      7.50999        -0.000291      0.002630     -0.001311
     11.07341      8.80067      7.02468        -0.004935     -0.002000     -0.000805
     11.06245     10.85709      2.46442        -0.000874      0.002908      0.000085
     21.20383      1.10728      1.81741        -0.007467      0.003125     -0.001307
     21.18629     18.59168      7.64056        -0.007534     -0.003534      0.000423
     16.12425     13.65506      6.89410         0.005810      0.002853      0.000282
     16.14626      6.04244      2.60456         0.008705     -0.002822      0.001342
      3.67266     18.38467      4.21896         0.006330     -0.004756     -0.002097
      8.73906     13.45276      3.46201        -0.006897      0.003275     -0.000087
      3.70702      1.26031      5.23243         0.006266      0.006104     -0.000051
      8.76692      6.19498      6.01304        -0.006023     -0.003157     -0.001023
     20.69648      0.28470      3.91597        -0.000894      0.004406      0.004274
     21.67361      2.31260      6.56542         0.001140      0.003452     -0.005733
     21.66402     17.39938      2.89681         0.002543     -0.006037      0.004046
     15.63769     14.50400      4.80343         0.000795      0.003758     -0.005754
     15.67977      5.19756      4.70164        -0.003140     -0.005743      0.005170
      4.18433     19.55502      8.96081         0.001581      0.000935     -0.005607
     16.64236     12.48599      2.15179         0.001913      0.002168      0.006837
     16.65369      7.21930      7.34802         0.002737     -0.001217     -0.006129
      8.22794     12.63774      5.56249        -0.003291      0.001166      0.005372
      3.19521     17.53897      6.31300        -0.004099     -0.005773      0.005327
      3.24415      2.10167      3.13289        -0.002835      0.004715     -0.004578
      9.23938      4.99386      1.26687         0.003232     -0.006851      0.004304
     20.67079     19.40523      5.54055        -0.000925     -0.000650     -0.006067
      4.21297      0.08953      0.49263         0.003734      0.000379      0.004124
      8.25183      7.02141      3.91765         0.000611     -0.003000     -0.005683
      9.20882     14.64654      8.20539         0.002149      0.005972     -0.005871
 -----------------------------------------------------------------------------------
    total drift:                               -0.002316      0.006377      0.047431


--------------------------------------------------------------------------------------------------------



  FREE ENERGIE OF THE ION-ELECTRON SYSTEM (eV)
  ---------------------------------------------------
  free  energy   TOTEN  =     -1185.25741987 eV

  energy  without entropy=    -1185.22021336  energy(sigma->0) =    -1185.23881662
 


--------------------------------------------------------------------------------------------------------


    POTLOK:  cpu time    1.1313: real time    1.1315


--------------------------------------------------------------------------------------------------------




--------------------------------------------------------------------------------------------------------


  
 reached required accuracy - stopping structural energy minimisation
 writing wavefunctions
     LOOP+:  cpu time 2008.2573: real time 2029.2097
    4ORBIT:  cpu time    0.0000: real time    0.0000
 


 total charge     
 
# of ion       s       p       d       tot
------------------------------------------
    1        0.868   1.763   0.000   2.631
    2        0.869   1.768   0.000   2.637
    3        0.868   1.764   0.000   2.631
    4        0.868   1.763   0.000   2.631
    5        0.869   1.768   0.000   2.637
    6        0.869   1.768   0.000   2.637
    7        0.869   1.768   0.000   2.637
    8        0.868   1.763   0.000   2.631
    9        0.869   1.768   0.000   2.637
   10        0.868   1.763   0.000   2.631
   11        0.869   1.768   0.000   2.637
   12        0.869   1.768   0.000   2.637
   13        0.869   1.768   0.000   2.637
   14        0.868   1.763   0.000   2.631
   15        0.868   1.763   0.000   2.631
   16        0.868   1.763   0.000   2.631
   17        0.862   1.714   0.000   2.576
   18        0.862   1.716   0.000   2.579
   19        0.862   1.716   0.000   2.579
   20        0.862   1.716   0.000   2.579
   21        0.862   1.716   0.000   2.578
   22        0.862   1.714   0.000   2.576
   23        0.862   1.714   0.000   2.576
   24        0.862   1.714   0.000   2.577
   25        0.862   1.714   0.000   2.576
   26        0.862   1.716   0.000   2.579
   27        0.862   1.716   0.000   2.579
   28        0.862   1.716   0.000   2.578
   29        0.862   1.714   0.000   2.576
   30        0.862   1.714   0.000   2.576
   31        0.862   1.714   0.000   2.576
   32        0.862   1.716   0.000   2.579
   33        0.865   1.785   0.000   2.650
   34        0.865   1.787   0.000   2.651
   35        0.865   1.786   0.000   2.651
   36        0.865   1.787   0.000   2.651
   37        0.864   1.786   0.000   2.651
   38        0.865   1.785   0.000   2.650
   39        0.865   1.785   0.000   2.650
   40        0.865   1.786   0.000   2.651
   41        0.865   1.785   0.000   2.650
   42        0.865   1.786   0.000   2.651
   43        0.865   1.787   0.000   2.651
   44        0.865   1.786   0.000   2.651
   45        0.865   1.786   0.000   2.650
   46        0.865   1.785   0.000   2.650
   47        0.865   1.786   0.000   2.650
   48        0.865   1.786   0.000   2.651
   49        0.870   1.766   0.000   2.635
   50        0.870   1.766   0.000   2.636
   51        0.870   1.765   0.000   2.635
   52        0.870   1.766   0.000   2.635
   53        0.870   1.765   0.000   2.635
   54        0.870   1.766   0.000   2.635
   55        0.870   1.766   0.000   2.636
   56        0.870   1.766   0.000   2.636
   57        0.870   1.766   0.000   2.635
   58        0.870   1.765   0.000   2.635
   59        0.870   1.765   0.000   2.635
   60        0.870   1.765   0.000   2.635
   61        0.870   1.766   0.000   2.636
   62        0.870   1.766   0.000   2.636
   63        0.870   1.766   0.000   2.635
   64        0.870   1.765   0.000   2.635
   65        0.846   1.786   0.000   2.632
   66        0.846   1.787   0.000   2.633
   67        0.846   1.786   0.000   2.632
   68        0.846   1.786   0.000   2.632
   69        0.846   1.786   0.000   2.632
   70        0.846   1.786   0.000   2.632
   71        0.846   1.786   0.000   2.632
   72        0.846   1.786   0.000   2.632
   73        0.865   1.791   0.000   2.657
   74        0.865   1.791   0.000   2.657
   75        0.865   1.791   0.000   2.657
   76        0.865   1.791   0.000   2.657
   77        0.865   1.791   0.000   2.656
   78        0.865   1.791   0.000   2.656
   79        0.865   1.791   0.000   2.656
   80        0.865   1.791   0.000   2.656
   81        0.384   0.496   6.050   6.930
   82        0.384   0.497   6.050   6.931
   83        0.384   0.497   6.050   6.931
   84        0.384   0.497   6.050   6.931
   85        0.639   0.048   0.000   0.687
   86        0.639   0.048   0.000   0.687
   87        0.639   0.048   0.000   0.687
   88        0.639   0.048   0.000   0.687
   89        0.639   0.048   0.000   0.687
   90        0.639   0.048   0.000   0.687
   91        0.639   0.048   0.000   0.687
   92        0.639   0.048   0.000   0.687
   93        0.639   0.048   0.000   0.687
   94        0.639   0.048   0.000   0.687
   95        0.639   0.048   0.000   0.687
   96        0.639   0.048   0.000   0.687
   97        0.639   0.048   0.000   0.687
   98        0.639   0.048   0.000   0.687
   99        0.639   0.048   0.000   0.687
  100        0.639   0.048   0.000   0.687
  101        0.638   0.049   0.000   0.687
  102        0.638   0.049   0.000   0.687
  103        0.633   0.050   0.000   0.683
  104        0.633   0.050   0.000   0.683
  105        0.638   0.049   0.000   0.687
  106        0.633   0.050   0.000   0.683
  107        0.633   0.049   0.000   0.682
  108        0.638   0.049   0.000   0.687
  109        0.633   0.049   0.000   0.682
  110        0.633   0.050   0.000   0.683
  111        0.638   0.049   0.000   0.687
  112        0.638   0.049   0.000   0.687
  113        0.633   0.050   0.000   0.683
  114        0.638   0.049   0.000   0.687
  115        0.638   0.049   0.000   0.687
  116        0.633   0.050   0.000   0.683
  117        1.236   2.605   0.000   3.841
  118        1.237   2.608   0.000   3.845
  119        1.236   2.606   0.000   3.841
  120        1.236   2.605   0.000   3.841
  121        1.237   2.608   0.000   3.845
  122        1.237   2.608   0.000   3.845
  123        1.237   2.608   0.000   3.845
  124        1.236   2.605   0.000   3.841
  125        1.237   2.608   0.000   3.844
  126        1.236   2.605   0.000   3.841
  127        1.237   2.608   0.000   3.844
  128        1.237   2.608   0.000   3.845
  129        1.237   2.608   0.000   3.845
  130        1.236   2.605   0.000   3.841
  131        1.236   2.605   0.000   3.841
  132        1.236   2.605   0.000   3.841
  133        1.210   2.718   0.000   3.928
  134        1.210   2.719   0.000   3.928
  135        1.210   2.719   0.000   3.928
  136        1.210   2.718   0.000   3.928
  137        1.210   2.718   0.000   3.928
  138        1.210   2.718   0.000   3.928
  139        1.210   2.718   0.000   3.928
  140        1.210   2.718   0.000   3.928
  141        1.584   3.540   0.000   5.124
  142        1.585   3.537   0.000   5.122
  143        1.585   3.537   0.000   5.122
  144        1.585   3.537   0.000   5.122
  145        1.585   3.537   0.000   5.122
  146        1.584   3.540   0.000   5.124
  147        1.584   3.540   0.000   5.124
  148        1.584   3.540   0.000   5.124
  149        1.584   3.540   0.000   5.124
  150        1.585   3.537   0.000   5.122
  151        1.585   3.537   0.000   5.122
  152        1.585   3.537   0.000   5.122
  153        1.584   3.540   0.000   5.124
  154        1.584   3.540   0.000   5.124
  155        1.584   3.540   0.000   5.124
  156        1.585   3.537   0.000   5.122
--------------------------------------------------
tot        145.866 264.755  24.199 434.820
 


 magnetization (x)
 
# of ion       s       p       d       tot
------------------------------------------
    1        0.003   0.022   0.000   0.025
    2        0.003   0.023   0.000   0.026
    3        0.003   0.022   0.000   0.025
    4       -0.003  -0.022   0.000  -0.025
    5       -0.003  -0.023   0.000  -0.026
    6        0.003   0.023   0.000   0.026
    7       -0.003  -0.023   0.000  -0.026
    8       -0.003  -0.022   0.000  -0.025
    9       -0.003  -0.023   0.000  -0.026
   10        0.003   0.022   0.000   0.025
   11        0.003   0.023   0.000   0.026
   12       -0.003  -0.023   0.000  -0.026
   13        0.003   0.023   0.000   0.026
   14        0.003   0.022   0.000   0.025
   15       -0.003  -0.022   0.000  -0.025
   16       -0.003  -0.022   0.000  -0.025
   17        0.000   0.001   0.000   0.001
   18        0.000   0.001   0.000   0.001
   19        0.000   0.001   0.000   0.001
   20       -0.000  -0.001   0.000  -0.001
   21       -0.000  -0.001   0.000  -0.001
   22        0.000   0.001   0.000   0.001
   23       -0.000  -0.001   0.000  -0.001
   24       -0.000  -0.001   0.000  -0.001
   25       -0.000  -0.001   0.000  -0.001
   26        0.000   0.001   0.000   0.001
   27        0.000   0.001   0.000   0.001
   28       -0.000  -0.001   0.000  -0.001
   29        0.000   0.001   0.000   0.001
   30        0.000   0.001   0.000   0.001
   31       -0.000  -0.001   0.000  -0.001
   32       -0.000  -0.001   0.000  -0.001
   33       -0.000  -0.000   0.000  -0.000
   34       -0.000  -0.000   0.000  -0.000
   35       -0.000  -0.000   0.000  -0.000
   36        0.000   0.000   0.000   0.000
   37        0.000   0.000   0.000   0.000
   38       -0.000  -0.000   0.000  -0.000
   39        0.000   0.000   0.000   0.000
   40        0.000   0.000   0.000   0.000
   41        0.000   0.000   0.000   0.000
   42       -0.000  -0.000   0.000  -0.000
   43       -0.000  -0.000   0.000  -0.000
   44        0.000   0.000   0.000   0.000
   45       -0.000  -0.000   0.000  -0.000
   46       -0.000  -0.000   0.000  -0.000
   47        0.000   0.000   0.000   0.000
   48        0.000   0.000   0.000   0.000
   49        0.000   0.000   0.000   0.000
   50        0.000   0.000   0.000   0.000
   51        0.000   0.000   0.000   0.000
   52       -0.000  -0.000   0.000  -0.000
   53       -0.000  -0.000   0.000  -0.000
   54        0.000   0.000   0.000   0.000
   55       -0.000  -0.000   0.000  -0.000
   56       -0.000  -0.000   0.000  -0.000
   57       -0.000  -0.000   0.000  -0.000
   58        0.000   0.000   0.000   0.000
   59        0.000   0.000   0.000   0.000
   60       -0.000  -0.000   0.000  -0.000
   61        0.000   0.000   0.000   0.000
   62        0.000   0.000   0.000   0.000
   63       -0.000  -0.000   0.000  -0.000
   64       -0.000  -0.000   0.000  -0.000
   65        0.002   0.012   0.000   0.014
   66        0.002   0.012   0.000   0.014
   67       -0.002  -0.012   0.000  -0.014
   68       -0.002  -0.012   0.000  -0.014
   69        0.002   0.012   0.000   0.014
   70       -0.002  -0.012   0.000  -0.014
   71        0.002   0.012   0.000   0.014
   72       -0.002  -0.012   0.000  -0.014
   73        0.000   0.000   0.000   0.000
   74        0.000   0.000   0.000   0.000
   75       -0.000  -0.000   0.000  -0.000
   76       -0.000  -0.000   0.000  -0.000
   77        0.000   0.000   0.000   0.000
   78       -0.000  -0.000   0.000  -0.000
   79        0.000   0.000   0.000   0.000
   80       -0.000  -0.000   0.000  -0.000
   81        0.019   0.089   3.391   3.499
   82        0.019   0.089   3.391   3.499
   83       -0.019  -0.089  -3.391  -3.499
   84       -0.019  -0.089  -3.391  -3.499
   85        0.000  -0.000   0.000   0.000
   86        0.000  -0.000   0.000   0.000
   87        0.000  -0.000   0.000   0.000
   88       -0.000   0.000   0.000  -0.000
   89       -0.000   0.000   0.000  -0.000
   90        0.000  -0.000   0.000   0.000
   91       -0.000   0.000   0.000  -0.000
   92       -0.000   0.000   0.000  -0.000
   93       -0.000   0.000   0.000  -0.000
   94        0.000  -0.000   0.000   0.000
   95        0.000  -0.000   0.000   0.000
   96       -0.000   0.000   0.000  -0.000
   97        0.000  -0.000   0.000   0.000
   98        0.000  -0.000   0.000   0.000
   99       -0.000   0.000   0.000  -0.000
  100       -0.000   0.000   0.000  -0.000
  101       -0.000  -0.000   0.000  -0.001
  102       -0.000  -0.000   0.000  -0.001
  103       -0.000  -0.000   0.000  -0.001
  104        0.000   0.000   0.000   0.001
  105        0.000   0.000   0.000   0.001
  106       -0.000  -0.000   0.000  -0.001
  107        0.000   0.000   0.000   0.001
  108        0.000   0.000   0.000   0.001
  109        0.000   0.000   0.000   0.001
  110       -0.000  -0.000   0.000  -0.001
  111       -0.000  -0.000   0.000  -0.001
  112        0.000   0.000   0.000   0.001
  113       -0.000  -0.000   0.000  -0.001
  114       -0.000  -0.000   0.000  -0.001
  115        0.000   0.000   0.000   0.001
  116        0.000   0.000   0.000   0.001
  117        0.010   0.037   0.000   0.047
  118        0.012   0.039   0.000   0.051
  119        0.010   0.037   0.000   0.047
  120       -0.010  -0.037   0.000  -0.047
  121       -0.012  -0.039   0.000  -0.051
  122        0.012   0.039   0.000   0.050
  123       -0.012  -0.039   0.000  -0.050
  124       -0.010  -0.037   0.000  -0.047
  125       -0.012  -0.039   0.000  -0.050
  126        0.010   0.037   0.000   0.047
  127        0.012   0.039   0.000   0.050
  128       -0.012  -0.039   0.000  -0.051
  129        0.012   0.039   0.000   0.051
  130        0.010   0.037   0.000   0.047
  131       -0.010  -0.037   0.000  -0.047
  132       -0.010  -0.037   0.000  -0.047
  133        0.000   0.001   0.000   0.001
  134        0.000   0.001   0.000   0.001
  135       -0.000  -0.001   0.000  -0.001
  136       -0.000  -0.001   0.000  -0.001
  137        0.000   0.001   0.000   0.001
  138       -0.000  -0.001   0.000  -0.001
  139        0.000   0.001   0.000   0.001
  140       -0.000  -0.001   0.000  -0.001
  141        0.000   0.002   0.000   0.002
  142        0.000   0.002   0.000   0.002
  143        0.000   0.002   0.000   0.002
  144       -0.000  -0.002   0.000  -0.002
  145       -0.000  -0.002   0.000  -0.002
  146        0.000   0.002   0.000   0.002
  147       -0.000  -0.002   0.000  -0.002
  148       -0.000  -0.002   0.000  -0.002
  149       -0.000  -0.002   0.000  -0.002
  150        0.000   0.002   0.000   0.002
  151        0.000   0.002   0.000   0.002
  152       -0.000  -0.002   0.000  -0.002
  153        0.000   0.002   0.000   0.002
  154        0.000   0.002   0.000   0.002
  155       -0.000  -0.002   0.000  -0.002
  156       -0.000  -0.002   0.000  -0.002
--------------------------------------------------
tot         -0.000  -0.000   0.000   0.000
 

 total amount of memory used by VASP MPI-rank0   115643. kBytes
=======================================================================

   base      :      30000. kBytes
   nonlr-proj:       6437. kBytes
   fftplans  :       9904. kBytes
   grid      :      27355. kBytes
   one-center:       1213. kBytes
   wavefun   :      40734. kBytes
 
  
  
 General timing and accounting informations for this job:
 ========================================================
  
                  Total CPU time used (sec):     2229.065
                            User time (sec):     2090.067
                          System time (sec):      138.999
                         Elapsed time (sec):     2257.817
  
                   Maximum memory used (kb):      983380.
                   Average memory used (kb):           0.
  
                          Minor page faults:       149454
                          Major page faults:            0
                 Voluntary context switches:        47563
