       N       E                     dE             d eps       ncg     rms          rms(c)
DAV:   1     0.548585360933E+04    0.54859E+04   -0.27079E+05  4608   0.143E+03
DAV:   2    -0.305612047680E+03   -0.57915E+04   -0.55885E+04  6400   0.321E+02
DAV:   3    -0.125813288193E+04   -0.95252E+03   -0.94329E+03  5536   0.138E+02
DAV:   4    -0.129925316519E+04   -0.41120E+02   -0.40741E+02  6880   0.420E+01
DAV:   5    -0.129997914483E+04   -0.72598E+00   -0.72190E+00  5984   0.431E+00
DAV:   6    -0.130002352002E+04   -0.44375E-01   -0.44316E-01  7264   0.129E+00
DAV:   7    -0.130002415601E+04   -0.63599E-03   -0.63503E-03  5984   0.119E-01
DAV:   8    -0.130002418839E+04   -0.32380E-04   -0.32372E-04  7328   0.284E-02    0.944E+01
DAV:   9    -0.161975996119E+04   -0.31974E+03   -0.38600E+03  7488   0.835E+01    0.330E+02
DAV:  10    -0.152305703186E+04    0.96703E+02   -0.26291E+02  5632   0.332E+01    0.210E+02
DAV:  11    -0.117908333165E+04    0.34397E+03   -0.75760E+02  6592   0.914E+01    0.653E+01
DAV:  12    -0.117390454673E+04    0.51788E+01   -0.68754E+02  6656   0.505E+01    0.493E+01
DAV:  13    -0.117041685892E+04    0.34877E+01   -0.15844E+02  6336   0.156E+01    0.322E+01
DAV:  14    -0.118348112010E+04   -0.13064E+02   -0.18735E+02  7040   0.239E+01    0.634E+01
DAV:  15    -0.117754946056E+04    0.59317E+01   -0.25141E+02  6912   0.258E+01    0.467E+01
DAV:  16    -0.117907326323E+04   -0.15238E+01   -0.28592E+02  6912   0.210E+01    0.630E+01
DAV:  17    -0.116408507717E+04    0.14988E+02   -0.17388E+02  6496   0.129E+01    0.215E+01
DAV:  18    -0.116631062172E+04   -0.22255E+01   -0.65986E+00  6176   0.510E+00    0.181E+01
DAV:  19    -0.116817188798E+04   -0.18613E+01   -0.14351E+01  6688   0.621E+00    0.234E+01
DAV:  20    -0.116907001862E+04   -0.89813E+00   -0.46293E+00  6528   0.444E+00    0.188E+01
DAV:  21    -0.117070629735E+04   -0.16363E+01   -0.15516E+00  5888   0.177E+00    0.178E+01
DAV:  22    -0.117106015782E+04   -0.35386E+00   -0.31213E+00  6464   0.265E+00    0.134E+01
DAV:  23    -0.117287845614E+04   -0.18183E+01   -0.13718E+00  6176   0.247E+00    0.133E+01
DAV:  24    -0.117296552356E+04   -0.87067E-01   -0.82421E-02  5952   0.554E-01    0.126E+01
DAV:  25    -0.117343731313E+04   -0.47179E+00   -0.48102E-01  6048   0.122E+00    0.141E+01
DAV:  26    -0.117403101024E+04   -0.59370E+00   -0.27842E+00  6176   0.196E+00    0.138E+01
DAV:  27    -0.117435811852E+04   -0.32711E+00   -0.21256E+00  6528   0.206E+00    0.120E+01
DAV:  28    -0.117482172777E+04   -0.46361E+00   -0.10169E+00  6176   0.150E+00    0.110E+01
DAV:  29    -0.117512082255E+04   -0.29909E+00   -0.97296E-01  6176   0.167E+00    0.944E+00
DAV:  30    -0.117506971868E+04    0.51104E-01   -0.96918E-01  6144   0.142E+00    0.832E+00
DAV:  31    -0.117473795832E+04    0.33176E+00   -0.23673E-01  6400   0.143E+00    0.686E+00
DAV:  32    -0.117458244295E+04    0.15552E+00   -0.16710E-01  6432   0.112E+00    0.619E+00
DAV:  33    -0.117459481386E+04   -0.12371E-01   -0.18792E-02  6176   0.337E-01    0.604E+00
DAV:  34    -0.117453710189E+04    0.57712E-01   -0.24884E-01  6048   0.112E+00    0.414E+00
DAV:  35    -0.117458976411E+04   -0.52662E-01   -0.25537E-02  6496   0.451E-01    0.384E+00
DAV:  36    -0.117464403180E+04   -0.54268E-01   -0.41722E-02  6112   0.957E-01    0.345E+00
DAV:  37    -0.117459834944E+04    0.45682E-01   -0.92584E-02  6304   0.120E+00    0.265E+00
DAV:  38    -0.117463542238E+04   -0.37073E-01   -0.32193E-02  6176   0.440E-01    0.241E+00
DAV:  39    -0.117465894264E+04   -0.23520E-01   -0.79877E-03  6240   0.258E-01    0.211E+00
DAV:  40    -0.117473395082E+04   -0.75008E-01   -0.23264E-02  6432   0.484E-01    0.143E+00
DAV:  41    -0.117479553245E+04   -0.61582E-01   -0.23690E-02  6528   0.438E-01    0.113E+00
DAV:  42    -0.117483113169E+04   -0.35599E-01   -0.14189E-02  6656   0.361E-01    0.866E-01
DAV:  43    -0.117485214957E+04   -0.21018E-01   -0.53943E-03  6528   0.217E-01    0.739E-01
DAV:  44    -0.117486580142E+04   -0.13652E-01   -0.38132E-03  6656   0.208E-01    0.439E-01
DAV:  45    -0.117487440686E+04   -0.86054E-02   -0.15385E-03  6528   0.116E-01    0.266E-01
DAV:  46    -0.117488016893E+04   -0.57621E-02   -0.67321E-04  6432   0.771E-02    0.276E-01
DAV:  47    -0.117488506177E+04   -0.48928E-02   -0.41368E-04  6432   0.620E-02    0.196E-01
DAV:  48    -0.117488715517E+04   -0.20934E-02   -0.28092E-04  6752   0.488E-02    0.132E-01
DAV:  49    -0.117488817046E+04   -0.10153E-02   -0.11093E-04  6816   0.313E-02    0.105E-01
DAV:  50    -0.117488911435E+04   -0.94389E-03   -0.83619E-05  6720   0.230E-02    0.906E-02
DAV:  51    -0.117489091063E+04   -0.17963E-02   -0.12877E-04  5824   0.219E-02    0.751E-02
DAV:  52    -0.117489147140E+04   -0.56077E-03   -0.50708E-05  6464   0.170E-02    0.682E-02
DAV:  53    -0.117489165408E+04   -0.18268E-03   -0.73423E-06  5440   0.827E-03    0.617E-02
DAV:  54    -0.117489176125E+04   -0.10718E-03   -0.85185E-05  6016   0.300E-02    0.288E-02
DAV:  55    -0.117489231485E+04   -0.55360E-03   -0.32093E-05  5888   0.137E-02    0.177E-02
DAV:  56    -0.117489256492E+04   -0.25007E-03   -0.14020E-05  5184   0.599E-03    0.133E-02
DAV:  57    -0.117489269250E+04   -0.12757E-03   -0.86310E-06  4736   0.449E-03    0.977E-03
DAV:  58    -0.117489271683E+04   -0.24331E-04   -0.21701E-06  3936   0.337E-03    0.699E-03
DAV:  59    -0.117489272674E+04   -0.99165E-05   -0.19188E-06  3712   0.396E-03    0.491E-03
DAV:  60    -0.117489273287E+04   -0.61313E-05   -0.49316E-07  3680   0.161E-03    0.404E-03
DAV:  61    -0.117489273739E+04   -0.45175E-05   -0.17368E-07  3456   0.974E-04    0.269E-03
DAV:  62    -0.117489274088E+04   -0.34923E-05   -0.11859E-07  3552   0.820E-04    0.198E-03
DAV:  63    -0.117489274477E+04   -0.38910E-05   -0.89161E-08  3424   0.694E-04    0.162E-03
DAV:  64    -0.117489274855E+04   -0.37758E-05   -0.96080E-08  3520   0.812E-04    0.100E-03
DAV:  65    -0.117489275211E+04   -0.35616E-05   -0.50565E-08  3360   0.453E-04    0.706E-04
DAV:  66    -0.117489275570E+04   -0.35864E-05   -0.50808E-08  3488   0.517E-04    0.643E-04
DAV:  67    -0.117489275852E+04   -0.28231E-05   -0.38475E-08  3424   0.328E-04    0.640E-04
DAV:  68    -0.117489276110E+04   -0.25790E-05   -0.29242E-08  3360   0.277E-04    0.502E-04
DAV:  69    -0.117489276391E+04   -0.28118E-05   -0.32356E-08  3424   0.382E-04    0.616E-04
DAV:  70    -0.117489276743E+04   -0.35139E-05   -0.54831E-08  3552   0.310E-04    0.430E-04
DAV:  71    -0.117489276971E+04   -0.22861E-05   -0.45587E-08  3424   0.307E-04    0.393E-04
DAV:  72    -0.117489277076E+04   -0.10459E-05   -0.32900E-08  3520   0.258E-04    0.467E-04
DAV:  73    -0.117489277124E+04   -0.48603E-06   -0.22234E-08  3296   0.216E-04
   1 F= -.11858755E+04 E0= -.11858582E+04  d E =-.118588E+04  mag=    -0.0007
