 vasp.6.0.8 29Jun18 (build Mar 14 2019 11:44:20) complex                        
  
 executed on             LinuxIFC date 2020.12.22  16:59:25
 running  128 mpi-ranks, with    1 threads/rank
 distrk:  each k-point on  128 cores,    1 groups
 distr:  one band on NCORES_PER_BAND=   4 cores,   32 groups


--------------------------------------------------------------------------------------------------------


 INCAR:
 POTCAR:    PAW_PBE C 08Apr2002                   
 POTCAR:    PAW_PBE Fe 06Sep2000                  
 POTCAR:    PAW_PBE H 15Jun2001                   
 POTCAR:    PAW_PBE N 08Apr2002                   
 POTCAR:    PAW_PBE O 08Apr2002                   
 POTCAR:    PAW_PBE C 08Apr2002                   
   VRHFIN =C: s2p2                                                              
   LEXCH  = PE                                                                  
   EATOM  =   147.1560 eV,   10.8157 Ry                                         
                                                                                
   TITEL  = PAW_PBE C 08Apr2002                                                 
   LULTRA =        F    use ultrasoft PP ?                                      
   IUNSCR =        1    unscreen: 0-lin 1-nonlin 2-no                           
   RPACOR =    1.200    partial core radius                                     
   POMASS =   12.011; ZVAL   =    4.000    mass and valenz                      
   RCORE  =    1.500    outmost cutoff radius                                   
   RWIGS  =    1.630; RWIGS  =    0.863    wigner-seitz radius (au A)           
   ENMAX  =  400.000; ENMIN  =  300.000 eV                                      
   ICORE  =        2    local potential                                         
   LCOR   =        T    correct aug charges                                     
   LPAW   =        T    paw PP                                                  
   EAUG   =  644.873                                                            
   DEXC   =    0.000                                                            
   RMAX   =    1.529    core radius for proj-oper                               
   RAUG   =    1.300    factor for augmentation sphere                          
   RDEP   =    1.501    radius for radial grids                                 
   RDEPT  =    1.300    core radius for aug-charge                              
                                                                                
   Atomic configuration                                                         
    4 entries                                                                   
     n  l   j            E        occ.                                          
     1  0  0.50      -273.3789   2.0000                                         
     2  0  0.50       -13.7508   2.0000                                         
     2  1  0.50        -5.2854   2.0000                                         
     3  2  1.50        -5.4423   0.0000                                         
   Description                                                                  
     l       E           TYP  RCUT    TYP  RCUT                                 
     0    -13.7508458     23  1.200                                             
     0     -8.2022199     23  1.200                                             
     1     -5.2854383     23  1.500                                             
     1     34.0145650     23  1.500                                             
     2     -5.4423304      7  1.500                                             
  local pseudopotential read in
  partial core-charges read in
  partial kinetic energy density read in
  atomic valenz-charges read in
  non local Contribution for L=           0  read in
    real space projection operators read in
  non local Contribution for L=           0  read in
    real space projection operators read in
  non local Contribution for L=           1  read in
    real space projection operators read in
  non local Contribution for L=           1  read in
    real space projection operators read in
    PAW grid and wavefunctions read in
 
   number of l-projection  operators is LMAX  =           4
   number of lm-projection operators is LMMAX =           8
 
 POTCAR:    PAW_PBE Fe 06Sep2000                  
   VRHFIN =Fe:  d7 s1                                                           
   LEXCH  = PE                                                                  
   EATOM  =   594.3153 eV,   43.6809 Ry                                         
                                                                                
   TITEL  = PAW_PBE Fe 06Sep2000                                                
   LULTRA =        F    use ultrasoft PP ?                                      
   IUNSCR =        1    unscreen: 0-lin 1-nonlin 2-no                           
   RPACOR =    2.000    partial core radius                                     
   POMASS =   55.847; ZVAL   =    8.000    mass and valenz                      
   RCORE  =    2.300    outmost cutoff radius                                   
   RWIGS  =    2.460; RWIGS  =    1.302    wigner-seitz radius (au A)           
   ENMAX  =  267.882; ENMIN  =  200.911 eV                                      
   RCLOC  =    1.701    cutoff for local pot                                    
   LCOR   =        T    correct aug charges                                     
   LPAW   =        T    paw PP                                                  
   EAUG   =  511.368                                                            
   DEXC   =    0.000                                                            
   RMAX   =    2.356    core radius for proj-oper                               
   RAUG   =    1.300    factor for augmentation sphere                          
   RDEP   =    2.442    radius for radial grids                                 
   RDEPT  =    1.890    core radius for aug-charge                              
                                                                                
   Atomic configuration                                                         
    9 entries                                                                   
     n  l   j            E        occ.                                          
     1  0  0.50     -6993.8440   2.0000                                         
     2  0  0.50      -814.6047   2.0000                                         
     2  1  1.50      -693.3689   6.0000                                         
     3  0  0.50       -89.4732   2.0000                                         
     3  1  1.50       -55.6373   6.0000                                         
     3  2  2.50        -3.8151   7.0000                                         
     4  0  0.50        -4.2551   1.0000                                         
     4  1  1.50        -3.4015   0.0000                                         
     4  3  2.50        -1.3606   0.0000                                         
   Description                                                                  
     l       E           TYP  RCUT    TYP  RCUT                                 
     2     -3.8151135     23  2.300                                             
     2     -5.1756961     23  2.300                                             
     0     -4.2550963     23  2.300                                             
     0      7.2035603     23  2.300                                             
     1     -2.7211652     23  2.300                                             
     1     18.4316424     23  2.300                                             
  local pseudopotential read in
  partial core-charges read in
  partial kinetic energy density read in
  atomic valenz-charges read in
  non local Contribution for L=           2  read in
    real space projection operators read in
  non local Contribution for L=           2  read in
    real space projection operators read in
  non local Contribution for L=           0  read in
    real space projection operators read in
  non local Contribution for L=           0  read in
    real space projection operators read in
  non local Contribution for L=           1  read in
    real space projection operators read in
  non local Contribution for L=           1  read in
    real space projection operators read in
    PAW grid and wavefunctions read in
 
   number of l-projection  operators is LMAX  =           6
   number of lm-projection operators is LMMAX =          18
 
 POTCAR:    PAW_PBE H 15Jun2001                   
   VRHFIN =H: ultrasoft test                                                    
   LEXCH  = PE                                                                  
   EATOM  =    12.4884 eV,    0.9179 Ry                                         
                                                                                
   TITEL  = PAW_PBE H 15Jun2001                                                 
   LULTRA =        F    use ultrasoft PP ?                                      
   IUNSCR =        0    unscreen: 0-lin 1-nonlin 2-no                           
   RPACOR =    0.000    partial core radius                                     
   POMASS =    1.000; ZVAL   =    1.000    mass and valenz                      
   RCORE  =    1.100    outmost cutoff radius                                   
   RWIGS  =    0.700; RWIGS  =    0.370    wigner-seitz radius (au A)           
   ENMAX  =  250.000; ENMIN  =  200.000 eV                                      
   RCLOC  =    0.701    cutoff for local pot                                    
   LCOR   =        T    correct aug charges                                     
   LPAW   =        T    paw PP                                                  
   EAUG   =  400.000                                                            
   RMAX   =    1.123    core radius for proj-oper                               
   RAUG   =    1.200    factor for augmentation sphere                          
   RDEP   =    1.112    radius for radial grids                                 
   RDEPT  =    0.926    core radius for aug-charge                              
                                                                                
   Atomic configuration                                                         
    2 entries                                                                   
     n  l   j            E        occ.                                          
     1  0  0.50        -6.4927   1.0000                                         
     2  1  0.50        -3.4015   0.0000                                         
   Description                                                                  
     l       E           TYP  RCUT    TYP  RCUT                                 
     0     -6.4927494     23  1.100                                             
     0      6.8029130     23  1.100                                             
     1     -4.0817478     23  1.100                                             
  local pseudopotential read in
  atomic valenz-charges read in
  non local Contribution for L=           0  read in
    real space projection operators read in
  non local Contribution for L=           0  read in
    real space projection operators read in
  non local Contribution for L=           1  read in
    real space projection operators read in
    PAW grid and wavefunctions read in
 
   number of l-projection  operators is LMAX  =           3
   number of lm-projection operators is LMMAX =           5
 
 POTCAR:    PAW_PBE N 08Apr2002                   
   VRHFIN =N: s2p3                                                              
   LEXCH  = PE                                                                  
   EATOM  =   264.5486 eV,   19.4438 Ry                                         
                                                                                
   TITEL  = PAW_PBE N 08Apr2002                                                 
   LULTRA =        F    use ultrasoft PP ?                                      
   IUNSCR =        1    unscreen: 0-lin 1-nonlin 2-no                           
   RPACOR =    1.200    partial core radius                                     
   POMASS =   14.001; ZVAL   =    5.000    mass and valenz                      
   RCORE  =    1.500    outmost cutoff radius                                   
   RWIGS  =    1.400; RWIGS  =    0.741    wigner-seitz radius (au A)           
   ENMAX  =  400.000; ENMIN  =  300.000 eV                                      
   ICORE  =        2    local potential                                         
   LCOR   =        T    correct aug charges                                     
   LPAW   =        T    paw PP                                                  
   EAUG   =  627.112                                                            
   DEXC   =    0.000                                                            
   RMAX   =    1.529    core radius for proj-oper                               
   RAUG   =    1.300    factor for augmentation sphere                          
   RDEP   =    1.514    radius for radial grids                                 
   RDEPT  =    1.338    core radius for aug-charge                              
                                                                                
   Atomic configuration                                                         
    4 entries                                                                   
     n  l   j            E        occ.                                          
     1  0  0.50      -384.7179   2.0000                                         
     2  0  0.50       -18.5828   2.0000                                         
     2  1  0.50        -7.0898   3.0000                                         
     3  2  1.50        -6.8029   0.0000                                         
   Description                                                                  
     l       E           TYP  RCUT    TYP  RCUT                                 
     0    -18.5828119     23  1.200                                             
     0    -13.5018863     23  1.200                                             
     1     -7.0897853     23  1.500                                             
     1      9.5240782     23  1.500                                             
     2     -6.8029130      7  1.500                                             
  local pseudopotential read in
  partial core-charges read in
  partial kinetic energy density read in
  atomic valenz-charges read in
  non local Contribution for L=           0  read in
    real space projection operators read in
  non local Contribution for L=           0  read in
    real space projection operators read in
  non local Contribution for L=           1  read in
    real space projection operators read in
  non local Contribution for L=           1  read in
    real space projection operators read in
    PAW grid and wavefunctions read in
 
   number of l-projection  operators is LMAX  =           4
   number of lm-projection operators is LMMAX =           8
 
 POTCAR:    PAW_PBE O 08Apr2002                   
   VRHFIN =O: s2p4                                                              
   LEXCH  = PE                                                                  
   EATOM  =   432.3788 eV,   31.7789 Ry                                         
                                                                                
   TITEL  = PAW_PBE O 08Apr2002                                                 
   LULTRA =        F    use ultrasoft PP ?                                      
   IUNSCR =        1    unscreen: 0-lin 1-nonlin 2-no                           
   RPACOR =    1.200    partial core radius                                     
   POMASS =   16.000; ZVAL   =    6.000    mass and valenz                      
   RCORE  =    1.520    outmost cutoff radius                                   
   RWIGS  =    1.550; RWIGS  =    0.820    wigner-seitz radius (au A)           
   ENMAX  =  400.000; ENMIN  =  300.000 eV                                      
   ICORE  =        2    local potential                                         
   LCOR   =        T    correct aug charges                                     
   LPAW   =        T    paw PP                                                  
   EAUG   =  605.392                                                            
   DEXC   =    0.000                                                            
   RMAX   =    1.553    core radius for proj-oper                               
   RAUG   =    1.300    factor for augmentation sphere                          
   RDEP   =    1.550    radius for radial grids                                 
   RDEPT  =    1.329    core radius for aug-charge                              
                                                                                
   Atomic configuration                                                         
    4 entries                                                                   
     n  l   j            E        occ.                                          
     1  0  0.50      -514.6923   2.0000                                         
     2  0  0.50       -23.9615   2.0000                                         
     2  1  0.50        -9.0305   4.0000                                         
     3  2  1.50        -9.5241   0.0000                                         
   Description                                                                  
     l       E           TYP  RCUT    TYP  RCUT                                 
     0    -23.9615318     23  1.200                                             
     0     -9.5240782     23  1.200                                             
     1     -9.0304911     23  1.520                                             
     1      8.1634956     23  1.520                                             
     2     -9.5240782      7  1.500                                             
  local pseudopotential read in
  partial core-charges read in
  partial kinetic energy density read in
  kinetic energy density of atom read in
  atomic valenz-charges read in
  non local Contribution for L=           0  read in
    real space projection operators read in
  non local Contribution for L=           0  read in
    real space projection operators read in
  non local Contribution for L=           1  read in
    real space projection operators read in
  non local Contribution for L=           1  read in
    real space projection operators read in
    PAW grid and wavefunctions read in
 
   number of l-projection  operators is LMAX  =           4
   number of lm-projection operators is LMMAX =           8
 
 Optimization of the real space projectors (new method)

 maximal supplied QI-value         = 25.13
 optimisation between [QCUT,QGAM] = [ 12.32, 24.88] = [ 42.47,173.37] Ry 
 Optimized for a Real-space Cutoff    1.06 Angstroem

   l    n(q)    QCUT    max X(q) W(low)/X(q) W(high)/X(q)  e(spline) 
   0      8    12.315   115.676    0.34E-03    0.18E-03    0.23E-06
   0      8    12.315    87.132    0.34E-03    0.18E-03    0.22E-06
   1      7    12.315     4.429    0.45E-03    0.12E-03    0.18E-06
   1      7    12.315     2.733    0.35E-03    0.97E-04    0.15E-06
 Optimization of the real space projectors (new method)

 maximal supplied QI-value         = 16.25
 optimisation between [QCUT,QGAM] = [ 12.51, 25.03] = [ 43.85,175.40] Ry 
 Optimized for a Real-space Cutoff    1.35 Angstroem

   l    n(q)    QCUT    max X(q) W(low)/X(q) W(high)/X(q)  e(spline) 
   2      9    12.514    80.901    0.12E-03    0.34E-03    0.58E-06
   2      9    12.514    75.754    0.12E-03    0.34E-03    0.59E-06
   0     10    12.514    58.752    0.17E-03    0.81E-04    0.93E-07
   0     10    12.514    30.679    0.15E-03    0.74E-04    0.88E-07
   1     10    12.514    17.977    0.11E-03    0.79E-04    0.24E-06
   1     10    12.514    13.559    0.97E-04    0.61E-04    0.20E-06
 Optimization of the real space projectors (new method)

 maximal supplied QI-value         = 34.20
 optimisation between [QCUT,QGAM] = [ 12.31, 24.97] = [ 42.46,174.58] Ry 
 Optimized for a Real-space Cutoff    1.00 Angstroem

   l    n(q)    QCUT    max X(q) W(low)/X(q) W(high)/X(q)  e(spline) 
   0      7    12.313    19.460    0.14E-03    0.42E-03    0.16E-06
   0      7    12.313    12.209    0.12E-03    0.40E-03    0.16E-06
   1      7    12.313     4.655    0.33E-03    0.59E-03    0.89E-07
 Optimization of the real space projectors (new method)

 maximal supplied QI-value         = 25.13
 optimisation between [QCUT,QGAM] = [ 12.32, 24.88] = [ 42.47,173.37] Ry 
 Optimized for a Real-space Cutoff    1.20 Angstroem

   l    n(q)    QCUT    max X(q) W(low)/X(q) W(high)/X(q)  e(spline) 
   0      9    12.315    79.467    0.14E-03    0.22E-04    0.37E-06
   0      9    12.315    66.151    0.14E-03    0.23E-04    0.36E-06
   1      8    12.315    22.077    0.30E-03    0.54E-03    0.45E-06
   1      8    12.315    15.894    0.30E-03    0.55E-03    0.45E-06
 Optimization of the real space projectors (new method)

 maximal supplied QI-value         = 24.76
 optimisation between [QCUT,QGAM] = [ 12.38, 25.00] = [ 42.90,175.06] Ry 
 Optimized for a Real-space Cutoff    1.13 Angstroem

   l    n(q)    QCUT    max X(q) W(low)/X(q) W(high)/X(q)  e(spline) 
   0      8    12.378    20.381    0.16E-03    0.54E-05    0.27E-06
   0      8    12.378    15.268    0.17E-03    0.61E-05    0.29E-06
   1      8    12.378     5.964    0.38E-03    0.23E-03    0.28E-06
   1      8    12.378     5.382    0.33E-03    0.20E-03    0.25E-06
  PAW_PBE C 08Apr2002                   :
 energy of atom  1       EATOM= -147.1560
 kinetic energy error for atom=    0.0057 (will be added to EATOM!!)
  PAW_PBE Fe 06Sep2000                  :
 energy of atom  2       EATOM= -594.3153
 kinetic energy error for atom=    0.0017 (will be added to EATOM!!)
  PAW_PBE H 15Jun2001                   :
 energy of atom  3       EATOM=  -12.4884
 kinetic energy error for atom=    0.0004 (will be added to EATOM!!)
  PAW_PBE N 08Apr2002                   :
 energy of atom  4       EATOM= -264.5486
 kinetic energy error for atom=    0.0103 (will be added to EATOM!!)
  PAW_PBE O 08Apr2002                   :
 energy of atom  5       EATOM= -432.3788
 kinetic energy error for atom=    0.0168 (will be added to EATOM!!)
 
 
 POSCAR: FeH_exp1
  positions in direct lattice
  velocities in cartesian coordinates
 exchange correlation table for  LEXCH =        8
   RHO(1)=    0.500       N(1)  =     2000
   RHO(2)=  100.500       N(2)  =     4000
 


--------------------------------------------------------------------------------------------------------


 ion  position               nearest neighbor table
   1  0.893  0.969  0.088- 107 1.09 117 1.35  65 1.40
   2  0.933  0.984  0.398- 112 1.09 118 1.35  65 1.40
   3  0.892  0.813  0.918- 116 1.09 119 1.35  66 1.40
   4  0.606  0.469  0.591- 110 1.09 120 1.35  67 1.40
   5  0.568  0.297  0.114- 111 1.09 121 1.35  68 1.40
   6  0.066  0.797  0.107- 115 1.09 122 1.35  69 1.40
   7  0.567  0.484  0.902- 101 1.09 123 1.35  67 1.40
   8  0.608  0.313  0.424- 113 1.09 124 1.35  68 1.40
   9  0.432  0.484  0.402- 114 1.09 125 1.35  70 1.40
  10  0.106  0.811  0.418- 104 1.09 126 1.35  69 1.40
  11  0.068  0.984  0.897- 105 1.09 127 1.35  71 1.40
  12  0.433  0.296  0.613- 102 1.09 128 1.35  72 1.40
  13  0.932  0.798  0.608- 108 1.09 129 1.35  66 1.40
  14  0.108  0.968  0.587- 109 1.09 130 1.35  71 1.40
  15  0.394  0.311  0.925- 106 1.09 131 1.35  72 1.40
  16  0.393  0.468  0.091- 103 1.09 132 1.35  70 1.40
  17  0.816  0.034  0.445- 141 1.23 133 1.42  33 1.48
  18  0.846  0.084  0.050- 142 1.23 133 1.42  34 1.48
  19  0.844  0.698  0.959- 143 1.23 134 1.42  35 1.48
  20  0.654  0.584  0.551- 144 1.23 135 1.42  36 1.48
  21  0.656  0.198  0.464- 145 1.23 136 1.42  37 1.48
  22  0.184  0.747  0.063- 146 1.23 137 1.42  38 1.48
  23  0.684  0.534  0.945- 147 1.23 135 1.42  39 1.48
  24  0.686  0.248  0.070- 148 1.23 136 1.42  40 1.48
  25  0.315  0.533  0.445- 149 1.23 138 1.42  41 1.48
  26  0.153  0.696  0.457- 150 1.23 137 1.42  42 1.48
  27  0.155  0.083  0.548- 151 1.23 139 1.42  43 1.48
  28  0.346  0.196  0.962- 152 1.23 140 1.42  44 1.48
  29  0.814  0.748  0.564- 153 1.23 134 1.42  45 1.48
  30  0.185  0.033  0.942- 154 1.23 139 1.42  46 1.48
  31  0.316  0.247  0.568- 155 1.23 140 1.42  47 1.48
  32  0.345  0.583  0.050- 156 1.23 138 1.42  48 1.48
  33  0.775  0.076  0.444-  49 1.39  73 1.42  17 1.48
  34  0.805  0.126  0.061-  50 1.39  73 1.42  18 1.48
  35  0.804  0.656  0.950-  51 1.39  74 1.42  19 1.48
  36  0.694  0.626  0.560-  52 1.39  75 1.42  20 1.48
  37  0.696  0.156  0.453-  53 1.39  76 1.42  21 1.48
  38  0.225  0.705  0.065-  54 1.39  77 1.42  22 1.48
  39  0.725  0.576  0.943-  55 1.39  75 1.42  23 1.48
  40  0.727  0.206  0.071-  56 1.39  76 1.42  24 1.48
  41  0.273  0.575  0.442-  57 1.39  78 1.42  25 1.48
  42  0.194  0.655  0.448-  58 1.39  77 1.42  26 1.48
  43  0.196  0.125  0.559-  59 1.39  79 1.42  27 1.48
  44  0.306  0.154  0.950-  60 1.39  80 1.42  28 1.48
  45  0.773  0.706  0.567-  61 1.39  74 1.42  29 1.48
  46  0.227  0.074  0.941-  62 1.39  79 1.42  30 1.48
  47  0.275  0.205  0.568-  63 1.39  80 1.42  31 1.48
  48  0.304  0.625  0.059-  64 1.39  78 1.42  32 1.48
  49  0.739  0.071  0.631-  88 1.09  33 1.39  53 1.40
  50  0.801  0.171  0.879-  99 1.09  34 1.39  56 1.40
  51  0.800  0.611  0.133-  93 1.09  35 1.39  55 1.40
  52  0.698  0.671  0.378-  90 1.09  36 1.39  61 1.40
  53  0.701  0.111  0.636-  98 1.09  37 1.39  49 1.40
  54  0.261  0.709  0.879-  96 1.09  38 1.39  64 1.40
  55  0.761  0.572  0.129-  86 1.09  39 1.39  51 1.40
  56  0.762  0.211  0.884-  87 1.09  40 1.39  50 1.40
  57  0.238  0.570  0.628-  95 1.09  41 1.39  58 1.40
  58  0.198  0.610  0.631-  91 1.09  42 1.39  57 1.40
  59  0.200  0.170  0.377-  92 1.09  43 1.39  63 1.40
  60  0.301  0.109  0.132-  85 1.09  44 1.39  62 1.40
  61  0.737  0.711  0.381-  89 1.09  45 1.39  52 1.40
  62  0.262  0.069  0.128- 100 1.09  46 1.39  60 1.40
  63  0.239  0.210  0.381-  94 1.09  47 1.39  59 1.40
  64  0.300  0.670  0.876-  97 1.09  48 1.39  54 1.40
  65  0.890  0.001  0.244-   2 1.40   1 1.40 133 1.42
  66  0.888  0.782  0.763-  13 1.40   3 1.40 134 1.42
  67  0.610  0.501  0.746-   7 1.40   4 1.40 135 1.42
  68  0.612  0.281  0.269-   5 1.40   8 1.40 136 1.42
  69  0.110  0.780  0.262-   6 1.40  10 1.40 137 1.42
  70  0.389  0.500  0.246-   9 1.40  16 1.40 138 1.42
  71  0.112  1.000  0.742-  11 1.40  14 1.40 139 1.42
  72  0.390  0.280  0.769-  12 1.40  15 1.40 140 1.42
  73  0.771  0.121  0.255-  33 1.42  34 1.42  76 1.43
  74  0.769  0.662  0.756-  45 1.42  35 1.42  75 1.43
  75  0.729  0.621  0.753-  39 1.42  36 1.42  74 1.43
  76  0.731  0.161  0.260-  40 1.42  37 1.42  73 1.43
  77  0.229  0.660  0.255-  38 1.42  42 1.42  78 1.43
  78  0.269  0.620  0.252-  41 1.42  48 1.42  77 1.43
  79  0.231  0.119  0.753-  46 1.42  43 1.42  80 1.43
  80  0.271  0.160  0.757-  47 1.42  44 1.42  79 1.43
  81  0.984  0.891  0.002- 119 1.99 117 2.00 127 2.01 122 2.01
  82  0.016  0.890  0.503- 126 2.00 130 2.00 118 2.01 129 2.01
  83  0.516  0.390  0.508- 124 1.99 120 1.99 128 2.01 125 2.01
  84  0.484  0.390  0.008- 132 1.99 131 2.00 121 2.01 123 2.01
  85  0.329  0.106  0.278-  60 1.09
  86  0.757  0.537  0.272-  55 1.09
  87  0.759  0.246  0.741-  56 1.09
  88  0.743  0.036  0.773-  49 1.09
  89  0.741  0.746  0.238-  61 1.09
  90  0.671  0.674  0.232-  52 1.09
  91  0.171  0.607  0.777-  58 1.09
  92  0.173  0.173  0.231-  59 1.09
  93  0.827  0.608  0.278-  51 1.09
  94  0.243  0.245  0.239-  63 1.09
  95  0.241  0.535  0.771-  57 1.09
  96  0.257  0.744  0.736-  54 1.09
  97  0.328  0.673  0.730-  64 1.09
  98  0.673  0.108  0.782-  53 1.09
  99  0.829  0.174  0.732-  50 1.09
 100  0.259  0.034  0.270-  62 1.09
 101  0.555  0.498  0.050-   7 1.09
 102  0.445  0.283  0.465-  12 1.09
 103  0.368  0.469  0.942-  16 1.09
 104  0.131  0.810  0.568-  10 1.09
 105  0.056  0.998  0.044-  11 1.09
 106  0.368  0.310  0.074-  15 1.09
 107  0.868  0.970  0.939-   1 1.09
 108  0.944  0.783  0.461-  13 1.09
 109  0.133  0.969  0.438-  14 1.09
 110  0.632  0.470  0.441-   4 1.09
 111  0.557  0.283  0.967-   5 1.09
 112  0.945  0.998  0.546-   2 1.09
 113  0.633  0.312  0.573-   8 1.09
 114  0.444  0.498  0.549-   9 1.09
 115  0.055  0.783  0.959-   6 1.09
 116  0.867  0.813  0.067-   3 1.09
 117  0.937  0.936  0.148-   1 1.35 118 1.37  81 2.00
 118  0.962  0.945  0.338-   2 1.35 117 1.37  82 2.01
 119  0.936  0.846  0.857-   3 1.35 129 1.37  81 1.99
 120  0.563  0.436  0.652-   4 1.35 123 1.37  83 1.99
 121  0.539  0.336  0.173-   5 1.35 124 1.37  84 2.01
 122  0.038  0.836  0.167-   6 1.35 126 1.37  81 2.01
 123  0.539  0.445  0.843-   7 1.35 120 1.37  84 2.01
 124  0.564  0.346  0.363-   8 1.35 121 1.37  83 1.99
 125  0.461  0.444  0.343-   9 1.35 132 1.37  83 2.01
 126  0.063  0.845  0.357-  10 1.35 122 1.37  82 2.00
 127  0.039  0.945  0.838-  11 1.35 130 1.37  81 2.01
 128  0.462  0.335  0.673-  12 1.35 131 1.37  83 2.01
 129  0.961  0.836  0.667-  13 1.35 119 1.37  82 2.01
 130  0.064  0.935  0.648-  14 1.35 127 1.37  82 2.00
 131  0.437  0.344  0.864-  15 1.35 128 1.37  84 2.00
 132  0.436  0.435  0.153-  16 1.35 125 1.37  84 1.99
 133  0.849  0.041  0.246-  17 1.42  18 1.42  65 1.42
 134  0.848  0.742  0.762-  29 1.42  19 1.42  66 1.42
 135  0.650  0.541  0.748-  23 1.42  20 1.42  67 1.42
 136  0.652  0.241  0.268-  24 1.42  21 1.42  68 1.42
 137  0.150  0.740  0.260-  22 1.42  26 1.42  69 1.42
 138  0.349  0.540  0.247-  25 1.42  32 1.42  70 1.42
 139  0.152  0.040  0.744-  30 1.42  27 1.42  71 1.42
 140  0.350  0.240  0.766-  31 1.42  28 1.42  72 1.42
 141  0.822  0.994  0.606-  17 1.23
 142  0.876  0.086  0.882-  18 1.23
 143  0.874  0.696  0.126-  19 1.23
 144  0.624  0.586  0.384-  20 1.23
 145  0.626  0.196  0.632-  21 1.23
 146  0.178  0.786  0.900-  22 1.23
 147  0.678  0.495  0.108-  23 1.23
 148  0.680  0.288  0.908-  24 1.23
 149  0.321  0.494  0.608-  25 1.23
 150  0.124  0.694  0.624-  26 1.23
 151  0.126  0.085  0.381-  27 1.23
 152  0.376  0.194  0.129-  28 1.23
 153  0.820  0.788  0.402-  29 1.23
 154  0.180  0.993  0.104-  30 1.23
 155  0.322  0.286  0.406-  31 1.23
 156  0.375  0.585  0.884-  32 1.23
 

IMPORTANT INFORMATION: All symmetrisations will be switched off!
NOSYMM: (Re-)initialisation of all symmetry stuff for point group C_1.


----------------------------------------------------------------------------------------

                                     Primitive cell                                     

  volume of cell :    3667.3452

  direct lattice vectors                    reciprocal lattice vectors
    23.983471919 -0.000560860  0.007058447     0.041695385  0.000003599 -0.000012754
    -0.001031421 25.792871084  3.905617276     0.000002213  0.039434497 -0.004385710
     0.001786534  0.670624865  6.029983002    -0.000050240 -0.025541710  0.168678584

  length of vectors
    23.983472964 26.086894145  6.067160449     0.041695387  0.039677627  0.170601425

  position of ions in fractional coordinates (direct lattice)
     0.893340782  0.969445811  0.087825481
     0.933303517  0.984326192  0.398181522
     0.892256219  0.812985069  0.918008977
     0.606465421  0.469277402  0.590829297
     0.568143027  0.297038937  0.114057257
     0.066450060  0.796598179  0.106991395
     0.566774909  0.484093991  0.902027806
     0.607637935  0.312539785  0.424163406
     0.432363237  0.483530696  0.401617981
     0.106196827  0.811111806  0.418455781
     0.067656611  0.983755387  0.897082374
     0.433323253  0.296329368  0.613128204
     0.931868427  0.797531077  0.607878147
     0.107526626  0.968363446  0.587310030
     0.393550141  0.310931892  0.924575519
     0.392823619  0.468281820  0.091117679
     0.816034354  0.033847600  0.444505479
     0.845990166  0.084266129  0.050106890
     0.844400849  0.698267483  0.958843762
     0.653660376  0.584172273  0.550981116
     0.655823517  0.197827968  0.464221646
     0.183610184  0.746542897  0.062725653
     0.683932481  0.534085543  0.945301898
     0.685726127  0.248210690  0.069598361
     0.314982246  0.533028877  0.444824991
     0.153366394  0.696341704  0.457004572
     0.155336382  0.083190690  0.548429116
     0.346152445  0.196100396  0.961539063
     0.814228089  0.748341374  0.564290638
     0.185304943  0.032613173  0.942476945
     0.316154482  0.246726865  0.567645508
     0.345180068  0.583139044  0.050250806
     0.774672573  0.075842788  0.443846455
     0.805451745  0.126246151  0.061123412
     0.803694564  0.656297348  0.949522051
     0.694278166  0.626206317  0.560425911
     0.696449474  0.155909663  0.453317015
     0.225259256  0.704667459  0.065028409
     0.725337213  0.576153024  0.943079570
     0.727205874  0.206284213  0.070548990
     0.273232997  0.574829862  0.442072922
     0.194237026  0.654507126  0.447722753
     0.196130537  0.125000747  0.559072540
     0.305519093  0.154208330  0.950425460
     0.772689685  0.706353376  0.566767929
     0.226937386  0.074409708  0.941345292
     0.274705499  0.204794530  0.568243020
     0.304241562  0.624949533  0.059246619
     0.739440759  0.071101224  0.630855347
     0.801320656  0.171288149  0.878901818
     0.799620225  0.611425549  0.132568277
     0.698327791  0.671106873  0.377502006
     0.700599763  0.110892073  0.635579345
     0.260769117  0.709371242  0.878886772
     0.760704423  0.571595678  0.129393633
     0.762451819  0.211053985  0.883580362
     0.237687520  0.570105479  0.628110544
     0.198439872  0.609684300  0.630877438
     0.200402240  0.170039867  0.376875092
     0.301357635  0.109107227  0.132329204
     0.737272614  0.710922217  0.380615920
     0.262318965  0.069463251  0.127871225
     0.239425876  0.209691895  0.381432115
     0.299993408  0.669768093  0.876060608
     0.889518283  0.000651750  0.243565714
     0.888067488  0.781619940  0.763060765
     0.610351540  0.500555607  0.746258286
     0.611863563  0.281129637  0.269403951
     0.110000786  0.779953928  0.262496467
     0.388773662  0.499713268  0.245913188
     0.111507901  0.999741092  0.742292713
     0.389688650  0.279799549  0.768554977
     0.770779464  0.120812181  0.254931647
     0.768847942  0.661544822  0.756493479
     0.729134578  0.620968631  0.753425054
     0.731133999  0.161335573  0.259534891
     0.229231700  0.659906240  0.254868077
     0.269249062  0.619557599  0.252102601
     0.230914347  0.119399797  0.752530914
     0.270730879  0.159800796  0.757010576
     0.983644489  0.890708037  0.002448631
     0.016304469  0.890362141  0.502574071
     0.516184266  0.390311409  0.507925926
     0.483863913  0.389971113  0.008134948
     0.328816045  0.105816761  0.278380964
     0.757048705  0.536531887  0.272415107
     0.758695594  0.246222370  0.741159119
     0.743154157  0.035908985  0.773203375
     0.740921277  0.745979996  0.237587098
     0.670881314  0.674098635  0.231623765
     0.170852827  0.606570683  0.776527895
     0.173026591  0.173291356  0.230602392
     0.827045085  0.608470240  0.278476371
     0.243222958  0.244889635  0.239134062
     0.241493555  0.535105985  0.771325525
     0.256995524  0.744386703  0.735738732
     0.327540537  0.672881776  0.730271162
     0.673279278  0.107757070  0.782064544
     0.828638299  0.174421609  0.732392753
     0.258555453  0.034236746  0.270053445
     0.554941070  0.497915281  0.049526506
     0.445178789  0.282618449  0.465346842
     0.367670973  0.468634132  0.941713631
     0.131407532  0.810419505  0.568056985
     0.055821412  0.997781735  0.044060109
     0.368313625  0.310294890  0.074170981
     0.868021242  0.969941943  0.938717887
     0.943575018  0.783456518  0.460884327
     0.132853609  0.968611904  0.438374082
     0.631643531  0.469838608  0.441166081
     0.556517866  0.282954438  0.967046436
     0.945233074  0.998151050  0.545516647
     0.632803856  0.312378487  0.573329993
     0.444096807  0.497521781  0.548732708
     0.054575642  0.782919203  0.959210431
     0.867066340  0.812778703  0.067274117
     0.936951003  0.936143818  0.148154757
     0.961591473  0.945392504  0.338166461
     0.936087274  0.845994378  0.856677844
     0.563023730  0.435803895  0.652446640
     0.539497564  0.335931334  0.172754804
     0.038323874  0.835659399  0.166741080
     0.538554099  0.445005566  0.842970607
     0.563840417  0.345558620  0.362619193
     0.460755754  0.444469809  0.343081450
     0.062836816  0.844689337  0.357418504
     0.039174417  0.944843729  0.837877871
     0.461552597  0.335307238  0.672934063
     0.960509159  0.836387956  0.666833945
     0.063745992  0.935268135  0.648227145
     0.437040107  0.344389207  0.863621534
     0.436385159  0.434987431  0.153006511
     0.849452243  0.040664521  0.246181223
     0.847775519  0.741704229  0.762030984
     0.650351914  0.540700054  0.747666347
     0.652231107  0.241321240  0.267769719
     0.149997128  0.739835849  0.260468296
     0.348568371  0.539700596  0.247021529
     0.151810102  0.039577300  0.744437102
     0.349622449  0.239786460  0.765780194
     0.821573248  0.994446067  0.606126450
     0.875528234  0.086167089  0.882444632
     0.874149956  0.696478986  0.125681177
     0.623940459  0.585921154  0.384104237
     0.626300495  0.195959403  0.631912541
     0.178020777  0.785768953  0.900345862
     0.678483940  0.494808710  0.107581019
     0.680077456  0.287573606  0.907895749
     0.320697370  0.493907013  0.607577568
     0.123534206  0.694422522  0.623850436
     0.125650421  0.085248046  0.381181565
     0.375726977  0.194079789  0.129083201
     0.819846263  0.787540955  0.401772457
     0.179545920  0.993275951  0.104273041
     0.321718423  0.286192791  0.406311329
     0.375071354  0.585042694  0.883593016

  ion indices of the primitive-cell ions
   primitive index   ion index
                 1           1
                 2           2
                 3           3
                 4           4
                 5           5
                 6           6
                 7           7
                 8           8
                 9           9
                10          10
                11          11
                12          12
                13          13
                14          14
                15          15
                16          16
                17          17
                18          18
                19          19
                20          20
                21          21
                22          22
                23          23
                24          24
                25          25
                26          26
                27          27
                28          28
                29          29
                30          30
                31          31
                32          32
                33          33
                34          34
                35          35
                36          36
                37          37
                38          38
                39          39
                40          40
                41          41
                42          42
                43          43
                44          44
                45          45
                46          46
                47          47
                48          48
                49          49
                50          50
                51          51
                52          52
                53          53
                54          54
                55          55
                56          56
                57          57
                58          58
                59          59
                60          60
                61          61
                62          62
                63          63
                64          64
                65          65
                66          66
                67          67
                68          68
                69          69
                70          70
                71          71
                72          72
                73          73
                74          74
                75          75
                76          76
                77          77
                78          78
                79          79
                80          80
                81          81
                82          82
                83          83
                84          84
                85          85
                86          86
                87          87
                88          88
                89          89
                90          90
                91          91
                92          92
                93          93
                94          94
                95          95
                96          96
                97          97
                98          98
                99          99
               100         100
               101         101
               102         102
               103         103
               104         104
               105         105
               106         106
               107         107
               108         108
               109         109
               110         110
               111         111
               112         112
               113         113
               114         114
               115         115
               116         116
               117         117
               118         118
               119         119
               120         120
               121         121
               122         122
               123         123
               124         124
               125         125
               126         126
               127         127
               128         128
               129         129
               130         130
               131         131
               132         132
               133         133
               134         134
               135         135
               136         136
               137         137
               138         138
               139         139
               140         140
               141         141
               142         142
               143         143
               144         144
               145         145
               146         146
               147         147
               148         148
               149         149
               150         150
               151         151
               152         152
               153         153
               154         154
               155         155
               156         156

----------------------------------------------------------------------------------------

 
 

Automatic generation of k-mesh.
 generate k-points for:    1    1    4
Space group operators:
 irot       det(A)        alpha          n_x          n_y          n_z        tau_x        tau_y        tau_z
    1     1.000000     0.000000     1.000000     0.000000     0.000000     0.000000     0.000000     0.000000
 
 Subroutine IBZKPT returns following result:
 ===========================================
 
 Found      3 irreducible k-points:
 
 Following reciprocal coordinates:
            Coordinates               Weight
  0.000000  0.000000  0.000000      1.000000
 -0.000000 -0.000000  0.250000      2.000000
 -0.000000 -0.000000  0.500000      1.000000
 
 Following cartesian coordinates:
            Coordinates               Weight
  0.000000  0.000000  0.000000      1.000000
 -0.000013 -0.006385  0.042170      2.000000
 -0.000025 -0.012771  0.084339      1.000000
 


--------------------------------------------------------------------------------------------------------




 Dimension of arrays:
   k-points           NKPTS =      3   k-points in BZ     NKDIM =      3   number of bands    NBANDS=    384
   number of dos      NEDOS =    301   number of ions     NIONS =    156
   non local maximal  LDIM  =      6   non local SUM 2l+1 LMDIM =     18
   total plane-waves  NPLWV = 829440
   max r-space proj   IRMAX =   2359   max aug-charges    IRDMAX=   8255
   dimension x,y,z NGX =   144 NGY =  160 NGZ =   36
   dimension x,y,z NGXF=   288 NGYF=  320 NGZF=   72
   support grid    NGXF=   288 NGYF=  320 NGZF=   72
   ions per type =              80   4  32  24  16
   NGX,Y,Z   is equivalent  to a cutoff of   9.98, 10.20,  9.86 a.u.
   NGXF,Y,Z  is equivalent  to a cutoff of  19.96, 20.39, 19.73 a.u.

 SYSTEM =  flex_MOF                                
 POSCAR =  FeH_exp1                                

 Startparameter for this run:
   NWRITE =      2    write-flag & timer
   PREC   = normal    normal or accurate (medium, high low for compatibility)
   ISTART =      0    job   : 0-new  1-cont  2-samecut
   ICHARG =      2    charge: 1-file 2-atom 10-const
   ISPIN  =      2    spin polarized calculation?
   LNONCOLLINEAR =      F non collinear calculations
   LSORBIT =      F    spin-orbit coupling
   INIWAV =      1    electr: 0-lowe 1-rand  2-diag
   LASPH  =      F    aspherical Exc in radial PAW
   METAGGA=      F    non-selfconsistent MetaGGA calc.

 Electronic Relaxation 1
   ENCUT  =  600.0 eV  44.10 Ry    6.64 a.u.  47.90 52.10 12.12*2*pi/ulx,y,z
   ENINI  =  600.0     initial cutoff
   ENAUG  =  644.9 eV  augmentation charge cutoff
   NELM   =     80;   NELMIN=  3; NELMDL= -8     # of ELM steps 
   EDIFF  = 0.1E-05   stopping-criterion for ELM
   LREAL  =      T    real-space projection
   NLSPLINE    = F    spline interpolate recip. space projectors
   LCOMPAT=      F    compatible to vasp.4.4
   GGA_COMPAT  = T    GGA compatible to vasp.4.4-vasp.4.6
   LMAXPAW     = -100 max onsite density
   LMAXMIX     =    2 max onsite mixed and CHGCAR
   VOSKOWN=      0    Vosko Wilk Nusair interpolation
   ROPT   =   -0.00050  -0.00050  -0.00050  -0.00050
   ROPT   =   -0.00050
 Ionic relaxation
   EDIFFG = -.1E-01   stopping-criterion for IOM
   NSW    =   1000    number of steps for IOM
   NBLOCK =      1;   KBLOCK =   1000    inner block; outer block 
   IBRION =      2    ionic relax: 0-MD 1-quasi-New 2-CG
   NFREE  =      1    steps in history (QN), initial steepest desc. (CG)
   ISIF   =      4    stress and relaxation
   IWAVPR =     11    prediction:  0-non 1-charg 2-wave 3-comb
   ISYM   =      0    0-nonsym 1-usesym 2-fastsym
   LCORR  =      T    Harris-Foulkes like correction to forces

   POTIM  = 0.5000    time-step for ionic-motion
   TEIN   =    0.0    initial temperature
   TEBEG  =    0.0;   TEEND  =   0.0 temperature during run
   SMASS  =  -3.00    Nose mass-parameter (am)
   estimated Nose-frequenzy (Omega)   =  0.10E-29 period in steps = 0.13E+47 mass=  -0.131E-25a.u.
   SCALEE = 1.0000    scale energy and forces
   NPACO  =    256;   APACO  = 16.0  distance and # of slots for P.C.
   PSTRESS=    0.0 pullay stress

  Mass of Ions in am
   POMASS =  12.01 55.85  1.00 14.00 16.00
  Ionic Valenz
   ZVAL   =   4.00  8.00  1.00  5.00  6.00
  Atomic Wigner-Seitz radii
   RWIGS  =  -1.00 -1.00 -1.00 -1.00 -1.00
  virtual crystal weights 
   VCA    =   1.00  1.00  1.00  1.00  1.00
   NELECT =     600.0000    total number of electrons
   NUPDOWN=      -1.0000    fix difference up-down

 DOS related values:
   EMIN   =  10.00;   EMAX   =-10.00  energy-range for DOS
   EFERMI =   0.00
   ISMEAR =     0;   SIGMA  =   0.05  broadening in eV -4-tet -1-fermi 0-gaus

 Electronic relaxation 2 (details)
   IALGO  =     38    algorithm
   LDIAG  =      T    sub-space diagonalisation (order eigenvalues)
   LSUBROT=      F    optimize rotation matrix (better conditioning)
   TURBO    =      0    0=normal 1=particle mesh
   IRESTART =      0    0=no restart 2=restart with 2 vectors
   NREBOOT  =      0    no. of reboots
   NMIN     =      0    reboot dimension
   EREF     =   0.00    reference energy to select bands
   IMIX   =      4    mixing-type and parameters
     AMIX     =   0.40;   BMIX     =  1.00
     AMIX_MAG =   1.60;   BMIX_MAG =  1.00
     AMIN     =   0.10
     WC   =   100.;   INIMIX=   1;  MIXPRE=   1;  MAXMIX= -45

 Intra band minimization:
   WEIMIN = 0.0010     energy-eigenvalue tresh-hold
   EBREAK =  0.65E-09  absolut break condition
   DEPER  =   0.30     relativ break condition  

   TIME   =   0.40     timestep for ELM

  volume/ion in A,a.u.               =      23.51       158.64
  Fermi-wavevector in a.u.,A,eV,Ry     =   0.895381  1.692025 10.907893  0.801708
  Thomas-Fermi vector in A             =   2.017706
 
 Write flags
   LWAVE        =      T    write WAVECAR
   LDOWNSAMPLE  =      F    k-point downsampling of WAVECAR
   LCHARG       =      T    write CHGCAR
   LVTOT        =      F    write LOCPOT, total local potential
   LVHAR        =      F    write LOCPOT, Hartree potential only
   LELF         =      F    write electronic localiz. function (ELF)
   LORBIT       =     11    0 simple, 1 ext, 2 COOP (PROOUT), +10 PAW based schemes


 Dipole corrections
   LMONO  =      F    monopole corrections only (constant potential shift)
   LDIPOL =      F    correct potential (dipole corrections)
   IDIPOL =      0    1-x, 2-y, 3-z, 4-all directions 
   EPSILON=  1.0000000 bulk dielectric constant

 Exchange correlation treatment:
   GGA     =    PE    GGA type
   LEXCH   =     8    internal setting for exchange type
   VOSKOWN=      0    Vosko Wilk Nusair interpolation
   LHFCALC =     F    Hartree Fock is set to
   LHFONE  =     F    Hartree Fock one center treatment
   AEXX    =    0.0000 exact exchange contribution

 Linear response parameters
   LEPSILON=     F    determine dielectric tensor
   LRPA    =     F    only Hartree local field effects (RPA)
   LNABLA  =     F    use nabla operator in PAW spheres
   LVEL    =     F    velocity operator in full k-point grid
   LINTERFAST=   F  fast interpolation
   KINTER  =     0    interpolate to denser k-point grid
   CSHIFT  =0.1000    complex shift for real part using Kramers Kronig
   OMEGAMAX=  -1.0    maximum frequency
   DEG_THRESHOLD= 0.2000000E-02 threshold for treating states as degnerate
   RTIME   =   -0.100 relaxation time in fs
  (WPLASMAI=    0.000 imaginary part of plasma frequency in eV, 0.658/RTIME)
   DFIELD  = 0.0000000 0.0000000 0.0000000 field for delta impulse in time
 
 Orbital magnetization related:
   ORBITALMAG=     F  switch on orbital magnetization
   LCHIMAG   =     F  perturbation theory with respect to B field
   DQ        =  0.001000  dq finite difference perturbation B field
   LLRAUG    =     F  two centre corrections for induced B field



--------------------------------------------------------------------------------------------------------


 conjugate gradient relaxation of ions
 charge density and potential will be updated during run
 spin polarized calculation
 Variant of blocked Davidson
 Davidson routine will perform the subspace rotation
 perform sub-space diagonalisation
    after iterative eigenvector-optimisation
 modified Broyden-mixing scheme, WC =      100.0
 initial mixing is a Kerker type mixing with AMIX =  0.4000 and BMIX =      1.0000
 Hartree-type preconditioning will be used
 using additional bands           84
 real space projection scheme for non local part
 use partial core corrections
 calculate Harris-corrections to forces 
   (improved forces if not selfconsistent)
 use gradient corrections 
 use of overlap-Matrix (Vanderbilt PP)
 Gauss-broadening in eV      SIGMA  =   0.05


--------------------------------------------------------------------------------------------------------


  energy-cutoff  :      600.00
  volume of cell :     3667.35
      direct lattice vectors                 reciprocal lattice vectors
    23.983471919 -0.000560860  0.007058447     0.041695385  0.000003599 -0.000012754
    -0.001031421 25.792871084  3.905617276     0.000002213  0.039434497 -0.004385710
     0.001786534  0.670624865  6.029983002    -0.000050240 -0.025541710  0.168678584

  length of vectors
    23.983472964 26.086894145  6.067160449     0.041695387  0.039677627  0.170601425


 
 k-points in units of 2pi/SCALE and weight: read from INCAR                         
   0.00000000  0.00000000  0.00000000       0.250
  -0.00001256 -0.00638543  0.04216965       0.500
  -0.00002512 -0.01277086  0.08433929       0.250
 
 k-points in reciprocal lattice and weights: read from INCAR                         
   0.00000000  0.00000000  0.00000000       0.250
  -0.00000000 -0.00000000  0.25000000       0.500
  -0.00000000 -0.00000000  0.50000000       0.250
 
 position of ions in fractional coordinates (direct lattice) 
   0.89334078  0.96944581  0.08782548
   0.93330352  0.98432619  0.39818152
   0.89225622  0.81298507  0.91800898
   0.60646542  0.46927740  0.59082930
   0.56814303  0.29703894  0.11405726
   0.06645006  0.79659818  0.10699140
   0.56677491  0.48409399  0.90202781
   0.60763793  0.31253978  0.42416341
   0.43236324  0.48353070  0.40161798
   0.10619683  0.81111181  0.41845578
   0.06765661  0.98375539  0.89708237
   0.43332325  0.29632937  0.61312820
   0.93186843  0.79753108  0.60787815
   0.10752663  0.96836345  0.58731003
   0.39355014  0.31093189  0.92457552
   0.39282362  0.46828182  0.09111768
   0.81603435  0.03384760  0.44450548
   0.84599017  0.08426613  0.05010689
   0.84440085  0.69826748  0.95884376
   0.65366038  0.58417227  0.55098112
   0.65582352  0.19782797  0.46422165
   0.18361018  0.74654290  0.06272565
   0.68393248  0.53408554  0.94530190
   0.68572613  0.24821069  0.06959836
   0.31498225  0.53302888  0.44482499
   0.15336639  0.69634170  0.45700457
   0.15533638  0.08319069  0.54842912
   0.34615245  0.19610040  0.96153906
   0.81422809  0.74834137  0.56429064
   0.18530494  0.03261317  0.94247695
   0.31615448  0.24672686  0.56764551
   0.34518007  0.58313904  0.05025081
   0.77467257  0.07584279  0.44384645
   0.80545175  0.12624615  0.06112341
   0.80369456  0.65629735  0.94952205
   0.69427817  0.62620632  0.56042591
   0.69644947  0.15590966  0.45331702
   0.22525926  0.70466746  0.06502841
   0.72533721  0.57615302  0.94307957
   0.72720587  0.20628421  0.07054899
   0.27323300  0.57482986  0.44207292
   0.19423703  0.65450713  0.44772275
   0.19613054  0.12500075  0.55907254
   0.30551909  0.15420833  0.95042546
   0.77268969  0.70635338  0.56676793
   0.22693739  0.07440971  0.94134529
   0.27470550  0.20479453  0.56824302
   0.30424156  0.62494953  0.05924662
   0.73944076  0.07110122  0.63085535
   0.80132066  0.17128815  0.87890182
   0.79962023  0.61142555  0.13256828
   0.69832779  0.67110687  0.37750201
   0.70059976  0.11089207  0.63557934
   0.26076912  0.70937124  0.87888677
   0.76070442  0.57159568  0.12939363
   0.76245182  0.21105398  0.88358036
   0.23768752  0.57010548  0.62811054
   0.19843987  0.60968430  0.63087744
   0.20040224  0.17003987  0.37687509
   0.30135763  0.10910723  0.13232920
   0.73727261  0.71092222  0.38061592
   0.26231897  0.06946325  0.12787122
   0.23942588  0.20969189  0.38143211
   0.29999341  0.66976809  0.87606061
   0.88951828  0.00065175  0.24356571
   0.88806749  0.78161994  0.76306077
   0.61035154  0.50055561  0.74625829
   0.61186356  0.28112964  0.26940395
   0.11000079  0.77995393  0.26249647
   0.38877366  0.49971327  0.24591319
   0.11150790  0.99974109  0.74229271
   0.38968865  0.27979955  0.76855498
   0.77077946  0.12081218  0.25493165
   0.76884794  0.66154482  0.75649348
   0.72913458  0.62096863  0.75342505
   0.73113400  0.16133557  0.25953489
   0.22923170  0.65990624  0.25486808
   0.26924906  0.61955760  0.25210260
   0.23091435  0.11939980  0.75253091
   0.27073088  0.15980080  0.75701058
   0.98364449  0.89070804  0.00244863
   0.01630447  0.89036214  0.50257407
   0.51618427  0.39031141  0.50792593
   0.48386391  0.38997111  0.00813495
   0.32881605  0.10581676  0.27838096
   0.75704871  0.53653189  0.27241511
   0.75869559  0.24622237  0.74115912
   0.74315416  0.03590899  0.77320338
   0.74092128  0.74598000  0.23758710
   0.67088131  0.67409864  0.23162376
   0.17085283  0.60657068  0.77652790
   0.17302659  0.17329136  0.23060239
   0.82704509  0.60847024  0.27847637
   0.24322296  0.24488964  0.23913406
   0.24149356  0.53510599  0.77132553
   0.25699552  0.74438670  0.73573873
   0.32754054  0.67288178  0.73027116
   0.67327928  0.10775707  0.78206454
   0.82863830  0.17442161  0.73239275
   0.25855545  0.03423675  0.27005345
   0.55494107  0.49791528  0.04952651
   0.44517879  0.28261845  0.46534684
   0.36767097  0.46863413  0.94171363
   0.13140753  0.81041951  0.56805699
   0.05582141  0.99778174  0.04406011
   0.36831363  0.31029489  0.07417098
   0.86802124  0.96994194  0.93871789
   0.94357502  0.78345652  0.46088433
   0.13285361  0.96861190  0.43837408
   0.63164353  0.46983861  0.44116608
   0.55651787  0.28295444  0.96704644
   0.94523307  0.99815105  0.54551665
   0.63280386  0.31237849  0.57332999
   0.44409681  0.49752178  0.54873271
   0.05457564  0.78291920  0.95921043
   0.86706634  0.81277870  0.06727412
   0.93695100  0.93614382  0.14815476
   0.96159147  0.94539250  0.33816646
   0.93608727  0.84599438  0.85667784
   0.56302373  0.43580389  0.65244664
   0.53949756  0.33593133  0.17275480
   0.03832387  0.83565940  0.16674108
   0.53855410  0.44500557  0.84297061
   0.56384042  0.34555862  0.36261919
   0.46075575  0.44446981  0.34308145
   0.06283682  0.84468934  0.35741850
   0.03917442  0.94484373  0.83787787
   0.46155260  0.33530724  0.67293406
   0.96050916  0.83638796  0.66683395
   0.06374599  0.93526814  0.64822714
   0.43704011  0.34438921  0.86362153
   0.43638516  0.43498743  0.15300651
   0.84945224  0.04066452  0.24618122
   0.84777552  0.74170423  0.76203098
   0.65035191  0.54070005  0.74766635
   0.65223111  0.24132124  0.26776972
   0.14999713  0.73983585  0.26046830
   0.34856837  0.53970060  0.24702153
   0.15181010  0.03957730  0.74443710
   0.34962245  0.23978646  0.76578019
   0.82157325  0.99444607  0.60612645
   0.87552823  0.08616709  0.88244463
   0.87414996  0.69647899  0.12568118
   0.62394046  0.58592115  0.38410424
   0.62630049  0.19595940  0.63191254
   0.17802078  0.78576895  0.90034586
   0.67848394  0.49480871  0.10758102
   0.68007746  0.28757361  0.90789575
   0.32069737  0.49390701  0.60757757
   0.12353421  0.69442252  0.62385044
   0.12565042  0.08524805  0.38118156
   0.37572698  0.19407979  0.12908320
   0.81984626  0.78754096  0.40177246
   0.17954592  0.99327595  0.10427304
   0.32171842  0.28619279  0.40631133
   0.37507135  0.58504269  0.88359302
 
 position of ions in cartesian coordinates  (Angst):
  21.42457055 25.06318774  4.32217607
  22.38355479 25.65510555  6.25201686
  21.40020351 21.58435828  8.71708500
  14.54571791 12.49989621  5.39978925
  13.62593973  7.73765800  1.85189393
   1.59307266 20.61826795  3.75683294
  13.59434231 13.09077831  7.33389875
  14.57370276  8.34541211  3.78264789
  10.36979034 12.74073742  4.31328725
   2.54687962 21.20146955  5.69192311
   1.62322844 25.97544366  9.25204105
  10.39338581  8.05412118  4.85756034
  22.34970365 20.97775181  6.78692359
   2.57891228 25.37067792  7.32428547
   9.44002985  8.63964881  6.79233349
   9.42095403 12.13921808  2.38114035
  19.57209622  1.17066554  2.81831619
  20.28978400  2.20659384  0.63722632
  20.25265685 18.65287405  8.51493729
  15.67742708 15.43661515  5.60857391
  15.72955020  5.41350203  3.57651806
   4.40295174 19.29744711  3.29524146
  16.40421340 14.40915892  7.79091560
  16.44596163  6.44835612  1.39393305
   7.55461277 14.04647916  4.76631721
   3.67835683 18.26704442  5.47645652
   3.72639973  2.51342981  3.63302568
   8.30345301  5.70263009  6.56640060
  19.52825278 19.67984326  6.33114514
   4.44590602  1.47313190  5.81180250
   7.58324177  6.74429408  4.38874503
   8.27810477 15.07433602  2.58296586
  18.58005263  2.25342324  2.97806747
  19.31750830  3.29678984  0.86732752
  19.27640543 17.56411522  8.29452092
  16.65155624 16.52710498  5.82998146
  16.70392547  4.32497288  3.34733322
   5.40188841 18.21888025  3.14587158
  17.39719526 15.49268647  7.94210674
  17.44083494  5.36756617  1.23620935
   6.55327280 15.12282438  4.91268624
   4.65860306 17.18176299  5.25738594
   4.70476110  3.59894611  3.86078737
   7.32894750  4.61468318  6.33548458
  18.53206536 18.59853686  6.18180091
   5.44435141  2.55040228  5.96851378
   6.58919557  5.66316273  4.22828380
   7.29623021 16.15880436  2.80021727
  17.73541038  2.25655727  4.08696050
  19.21984497  5.00697712  5.97440506
  19.17727542 15.85887546  3.19302272
  16.74830720 17.56254364  4.90234639
  16.80383585  3.28606733  4.27057979
   6.25498730 18.88597806  8.07204550
  18.24397477 14.82944157  3.01804475
  18.28760265  6.03581156  6.15765238
   5.70110608 15.12575035  6.01578742
   4.75977534 16.14847934  6.18677444
   4.80683942  4.63844577  2.93807557
   7.22772624  2.90276286  1.22620104
  17.68230375 18.59156209  5.07690162
   6.29147633  1.87726319  1.04420975
   5.74272894  5.66421958  3.12069543
   7.19575778 17.86258185  7.90060590
  21.33417123  0.17965284  1.47752122
  21.29949871 20.67145179  7.66022016
  14.63916595 13.41088329  6.45921154
  14.67480391  7.43146630  2.72680482
   2.63786525 20.29322608  4.62982720
   9.32406612 13.05373735  3.43728525
   2.67464159 26.28393051  8.38140559
   9.34717125  7.73202721  5.72991400
  18.48629846  3.28662422  2.01452014
  18.44031220 17.57003244  7.15081058
  17.48788421 16.52142047  6.97355264
  17.53542899  4.33494811  2.20026665
   5.49754673 17.19166888  4.11580940
   6.45733868 16.14908455  3.94182974
   5.53934904  3.58419999  5.00570842
   6.49425405  4.62923960  5.19079260
  23.59029566 22.97500801  3.50047290
   0.39101731 23.30202543  6.50804195
  12.38039570 10.40759011  4.59083514
  11.60434887 10.06365877  1.57554685
   7.88653858  2.91582284  2.09423318
  18.15658966 14.02096155  3.74349026
  18.19722463  6.84739607  5.43618244
  17.82476118  1.44430843  4.80789548
  17.76951969 19.39988214  4.35138828
  16.08978168 17.54189558  4.03419402
   4.09840565 16.16586253  7.05268891
   4.15001163  4.62423226  2.06855952
  19.83528250 15.88048378  4.06149732
   5.83350563  6.47663962  2.40013630
   5.79267998 14.31905432  6.74270356
   6.16419158 19.69313081  7.34559560
   7.85616989 17.84510719  7.03385331
  16.14886069  3.30345853  5.14144608
  19.87475191  4.98953011  5.10338880
   6.20150460  1.06402352  1.76395831
  13.30898848 12.87556711  2.24722753
  10.67747284  7.60136470  3.91297532
   8.81922551 12.71875012  7.51141793
   3.15178783 21.28392527  6.59148992
   1.33784084 25.76517216  4.16302930
   8.83325195  8.05293043  1.66174256
  20.81883972 25.64662821  9.45480179
  22.63022026 20.51614425  5.84566615
   3.18607493 25.27719201  6.42735339
  15.14930844 12.41398933  4.49969218
  13.34866644  7.94642059  6.94031346
  22.66991595 26.11048823  7.19452397
  15.17753558  8.44127248  4.68166754
  10.65145047 13.20025988  5.25511320
   1.30981953 20.83697382  8.84219058
  20.79454309 21.00852569  3.58618447
  22.47063721 24.24466758  4.55620355
  23.06193114 24.61063050  5.73826665
  22.45128076 22.39460839  8.47649042
  13.50397995 11.67786484  5.64029944
  12.93898682  8.78018467  2.35753577
   0.91857553 21.66585437  4.26948217
  12.91744411 12.04298618  6.82492121
  13.52314223  9.15581414  3.54018712
  11.05067718 11.69397303  3.80795650
   1.50681232 22.02662168  5.45470430
   0.94006090 24.93211225  8.74286382
  11.07049012  9.09956381  5.37062054
  23.03667310 22.01950344  7.29438831
   1.52904362 24.55793193  7.56204800
  10.48292681  9.46170738  6.55576043
  10.46585591 11.32193995  2.62460129
  20.37321188  1.21347356  1.64928446
  20.33319673 19.64124299  7.49783071
  15.59847492 14.44724569  6.62477331
  15.64299592  6.40357485  2.56175899
   3.59715415 19.25708307  4.46119382
   8.35976440 14.08589118  3.59985994
   3.64222247  1.51996509  4.64458840
   8.38628097  6.69813640  5.55662348
  19.70423609 26.05564189  7.54465696
  20.99969447  2.81379488  5.66384167
  20.96465709 18.04798733  3.48420586
  14.96434036 15.36982870  4.60892985
  15.02178714  5.47778061  4.58018502
   4.27035435 20.87093179  8.49923959
  16.27208236 12.83430323  2.58603420
  16.31194394  8.02582499  6.60254867
   7.69201240 13.14655667  5.59495780
   2.96317745 18.32945091  6.47482808
   3.01412640  2.45435123  2.63235150
   9.01126783  5.09223066  1.53902294
  19.66266532 20.58192112  5.50430149
   4.30529634 25.68926596  4.50938770
   7.71635547  7.65403582  3.57008075
   8.99648844 15.68227988  7.61565114
 


--------------------------------------------------------------------------------------------------------


 k-point  1 :   0.0000 0.0000 0.0000  plane waves:  122337
 k-point  2 :  -0.0000-0.0000 0.2500  plane waves:  122391
 k-point  3 :  -0.0000-0.0000 0.5000  plane waves:  122456

 maximum and minimum number of plane-waves per node :     30712    30463

 maximum number of plane-waves:    122456
 maximum index in each direction: 
   IXMAX=   47   IYMAX=   52   IZMAX=   12
   IXMIN=  -47   IYMIN=  -52   IZMIN=  -12


 real space projection operators:
  total allocation   :      11600.20 KBytes
  max/ min on nodes  :       2916.64       2889.55


 parallel 3D FFT for wavefunctions:
    minimum data exchange during FFTs selected (reduces bandwidth)
 parallel 3D FFT for charge:
    minimum data exchange during FFTs selected (reduces bandwidth)


 total amount of memory used by VASP MPI-rank0   106080. kBytes
=======================================================================

   base      :      30000. kBytes
   nonlr-proj:       6373. kBytes
   fftplans  :       8717. kBytes
   grid      :      24130. kBytes
   one-center:       1213. kBytes
   wavefun   :      35647. kBytes
 
     INWAV:  cpu time    0.0003: real time    0.0010
 Broyden mixing: mesh for mixing (old mesh)
   NGX = 95   NGY =105   NGZ = 25
  (NGX  =288   NGY  =320   NGZ  = 72)
  gives a total of 249375 points

 initial charge density was supplied:
 charge density of overlapping atoms calculated
 number of electron     600.0000000 magnetization      -0.0000000
 keeping initial charge density in first step


--------------------------------------------------------------------------------------------------------


 Maximum index for non-local projection operator          578
 Maximum index for augmentation-charges          411 (set IRDMAX)


--------------------------------------------------------------------------------------------------------


 First call to EWALD:  gamma=   0.115
 Maximum number of real-space cells 2x 2x 6
 Maximum number of reciprocal cells 4x 4x 1

    FEWALD:  cpu time    0.0154: real time    0.0157


--------------------------------------- Iteration      1(   1)  ---------------------------------------


    POTLOK:  cpu time    0.3542: real time    0.3995
    SETDIJ:  cpu time    0.0705: real time    0.0711
     EDDAV:  cpu time   15.7479: real time   15.9143
       DOS:  cpu time    0.0053: real time    0.0055
    --------------------------------------------
      LOOP:  cpu time   16.1780: real time   16.3904

 eigenvalue-minimisations  :  4608
 total energy-change (2. order) : 0.5485854E+04  (-0.2707946E+05)
 number of electron     600.0000000 magnetization      -0.0000000
 augmentation part      600.0000000 magnetization      -0.0000000

 Free energy of the ion-electron system (eV)
  ---------------------------------------------------
  alpha Z        PSCENC =       483.32289006
  Ewald energy   TEWEN  =     41751.75218738
  -Hartree energ DENC   =    -64985.44499229
  -exchange      EXHF   =         0.00000000
  -V(xc)+E(xc)   XCENC  =      2065.24997272
  PAW double counting   =     21422.65208726   -21556.96843230
  entropy T*S    EENTRO =        -0.04413762
  eigenvalues    EBANDS =     -1510.27019510
  atomic energy  EATOM  =     27815.60422923
  Solvation  Ediel_sol  =         0.00000000
  ---------------------------------------------------
  free energy    TOTEN  =      5485.85360933 eV

  energy without entropy =     5485.89774695  energy(sigma->0) =     5485.87567814


--------------------------------------------------------------------------------------------------------




--------------------------------------- Iteration      1(   2)  ---------------------------------------


     EDDAV:  cpu time   20.4604: real time   20.5104
       DOS:  cpu time    0.0029: real time    0.0029
    --------------------------------------------
      LOOP:  cpu time   20.4633: real time   20.5133

 eigenvalue-minimisations  :  6400
 total energy-change (2. order) :-0.5791466E+04  (-0.5588491E+04)
 number of electron     600.0000000 magnetization      -0.0000000
 augmentation part      600.0000000 magnetization      -0.0000000

 Free energy of the ion-electron system (eV)
  ---------------------------------------------------
  alpha Z        PSCENC =       483.32289006
  Ewald energy   TEWEN  =     41751.75218738
  -Hartree energ DENC   =    -64985.44499229
  -exchange      EXHF   =         0.00000000
  -V(xc)+E(xc)   XCENC  =      2065.24997272
  PAW double counting   =     21422.65208726   -21556.96843230
  entropy T*S    EENTRO =        -0.01783273
  eigenvalues    EBANDS =     -7301.76215699
  atomic energy  EATOM  =     27815.60422923
  Solvation  Ediel_sol  =         0.00000000
  ---------------------------------------------------
  free energy    TOTEN  =      -305.61204768 eV

  energy without entropy =     -305.59421495  energy(sigma->0) =     -305.60313131


--------------------------------------------------------------------------------------------------------




--------------------------------------- Iteration      1(   3)  ---------------------------------------


     EDDAV:  cpu time   17.6505: real time   17.6739
       DOS:  cpu time    0.0031: real time    0.0030
    --------------------------------------------
      LOOP:  cpu time   17.6535: real time   17.6769

 eigenvalue-minimisations  :  5536
 total energy-change (2. order) :-0.9525208E+03  (-0.9432896E+03)
 number of electron     600.0000000 magnetization      -0.0000000
 augmentation part      600.0000000 magnetization      -0.0000000

 Free energy of the ion-electron system (eV)
  ---------------------------------------------------
  alpha Z        PSCENC =       483.32289006
  Ewald energy   TEWEN  =     41751.75218738
  -Hartree energ DENC   =    -64985.44499229
  -exchange      EXHF   =         0.00000000
  -V(xc)+E(xc)   XCENC  =      2065.24997272
  PAW double counting   =     21422.65208726   -21556.96843230
  entropy T*S    EENTRO =        -0.07577415
  eigenvalues    EBANDS =     -8254.22504982
  atomic energy  EATOM  =     27815.60422923
  Solvation  Ediel_sol  =         0.00000000
  ---------------------------------------------------
  free energy    TOTEN  =     -1258.13288193 eV

  energy without entropy =    -1258.05710777  energy(sigma->0) =    -1258.09499485


--------------------------------------------------------------------------------------------------------




--------------------------------------- Iteration      1(   4)  ---------------------------------------


     EDDAV:  cpu time   21.2663: real time   21.2922
       DOS:  cpu time    0.0029: real time    0.0029
    --------------------------------------------
      LOOP:  cpu time   21.2692: real time   21.2950

 eigenvalue-minimisations  :  6880
 total energy-change (2. order) :-0.4112028E+02  (-0.4074117E+02)
 number of electron     600.0000000 magnetization      -0.0000000
 augmentation part      600.0000000 magnetization      -0.0000000

 Free energy of the ion-electron system (eV)
  ---------------------------------------------------
  alpha Z        PSCENC =       483.32289006
  Ewald energy   TEWEN  =     41751.75218738
  -Hartree energ DENC   =    -64985.44499229
  -exchange      EXHF   =         0.00000000
  -V(xc)+E(xc)   XCENC  =      2065.24997272
  PAW double counting   =     21422.65208726   -21556.96843230
  entropy T*S    EENTRO =        -0.04507214
  eigenvalues    EBANDS =     -8295.37603510
  atomic energy  EATOM  =     27815.60422923
  Solvation  Ediel_sol  =         0.00000000
  ---------------------------------------------------
  free energy    TOTEN  =     -1299.25316519 eV

  energy without entropy =    -1299.20809305  energy(sigma->0) =    -1299.23062912


--------------------------------------------------------------------------------------------------------




--------------------------------------- Iteration      1(   5)  ---------------------------------------


     EDDAV:  cpu time   18.6555: real time   18.6785
       DOS:  cpu time    0.0031: real time    0.0031
    --------------------------------------------
      LOOP:  cpu time   18.6587: real time   18.6816

 eigenvalue-minimisations  :  5984
 total energy-change (2. order) :-0.7259796E+00  (-0.7219000E+00)
 number of electron     600.0000000 magnetization      -0.0000000
 augmentation part      600.0000000 magnetization      -0.0000000

 Free energy of the ion-electron system (eV)
  ---------------------------------------------------
  alpha Z        PSCENC =       483.32289006
  Ewald energy   TEWEN  =     41751.75218738
  -Hartree energ DENC   =    -64985.44499229
  -exchange      EXHF   =         0.00000000
  -V(xc)+E(xc)   XCENC  =      2065.24997272
  PAW double counting   =     21422.65208726   -21556.96843230
  entropy T*S    EENTRO =        -0.04519881
  eigenvalues    EBANDS =     -8296.10188807
  atomic energy  EATOM  =     27815.60422923
  Solvation  Ediel_sol  =         0.00000000
  ---------------------------------------------------
  free energy    TOTEN  =     -1299.97914483 eV

  energy without entropy =    -1299.93394602  energy(sigma->0) =    -1299.95654543


--------------------------------------------------------------------------------------------------------




--------------------------------------- Iteration      1(   6)  ---------------------------------------


     EDDAV:  cpu time   22.1062: real time   22.1310
       DOS:  cpu time    0.0031: real time    0.0031
    --------------------------------------------
      LOOP:  cpu time   22.1092: real time   22.1340

 eigenvalue-minimisations  :  7264
 total energy-change (2. order) :-0.4437518E-01  (-0.4431606E-01)
 number of electron     600.0000000 magnetization      -0.0000000
 augmentation part      600.0000000 magnetization      -0.0000000

 Free energy of the ion-electron system (eV)
  ---------------------------------------------------
  alpha Z        PSCENC =       483.32289006
  Ewald energy   TEWEN  =     41751.75218738
  -Hartree energ DENC   =    -64985.44499229
  -exchange      EXHF   =         0.00000000
  -V(xc)+E(xc)   XCENC  =      2065.24997272
  PAW double counting   =     21422.65208726   -21556.96843230
  entropy T*S    EENTRO =        -0.04519509
  eigenvalues    EBANDS =     -8296.14626698
  atomic energy  EATOM  =     27815.60422923
  Solvation  Ediel_sol  =         0.00000000
  ---------------------------------------------------
  free energy    TOTEN  =     -1300.02352002 eV

  energy without entropy =    -1299.97832493  energy(sigma->0) =    -1300.00092247


--------------------------------------------------------------------------------------------------------




--------------------------------------- Iteration      1(   7)  ---------------------------------------


     EDDAV:  cpu time   18.6481: real time   18.6679
       DOS:  cpu time    0.0032: real time    0.0031
    --------------------------------------------
      LOOP:  cpu time   18.6513: real time   18.6710

 eigenvalue-minimisations  :  5984
 total energy-change (2. order) :-0.6359949E-03  (-0.6350309E-03)
 number of electron     600.0000000 magnetization      -0.0000000
 augmentation part      600.0000000 magnetization      -0.0000000

 Free energy of the ion-electron system (eV)
  ---------------------------------------------------
  alpha Z        PSCENC =       483.32289006
  Ewald energy   TEWEN  =     41751.75218738
  -Hartree energ DENC   =    -64985.44499229
  -exchange      EXHF   =         0.00000000
  -V(xc)+E(xc)   XCENC  =      2065.24997272
  PAW double counting   =     21422.65208726   -21556.96843230
  entropy T*S    EENTRO =        -0.04519535
  eigenvalues    EBANDS =     -8296.14690271
  atomic energy  EATOM  =     27815.60422923
  Solvation  Ediel_sol  =         0.00000000
  ---------------------------------------------------
  free energy    TOTEN  =     -1300.02415601 eV

  energy without entropy =    -1299.97896066  energy(sigma->0) =    -1300.00155834


--------------------------------------------------------------------------------------------------------




--------------------------------------- Iteration      1(   8)  ---------------------------------------


     EDDAV:  cpu time   22.4522: real time   22.4766
       DOS:  cpu time    0.0031: real time    0.0031
    CHARGE:  cpu time    0.7743: real time    0.7784
    MIXING:  cpu time    0.0148: real time    0.0179
    --------------------------------------------
      LOOP:  cpu time   23.2444: real time   23.2760

 eigenvalue-minimisations  :  7328
 total energy-change (2. order) :-0.3238035E-04  (-0.3237157E-04)
 number of electron     600.0000036 magnetization      -0.0003029
 augmentation part       32.7350790 magnetization       0.0012533

 Broyden mixing:
  rms(total) = 0.94364E+01    rms(broyden)= 0.94359E+01
  rms(prec ) = 0.10362E+02
  weight for this iteration     100.00

 Free energy of the ion-electron system (eV)
  ---------------------------------------------------
  alpha Z        PSCENC =       483.32289006
  Ewald energy   TEWEN  =     41751.75218738
  -Hartree energ DENC   =    -64985.44499229
  -exchange      EXHF   =         0.00000000
  -V(xc)+E(xc)   XCENC  =      2065.24997272
  PAW double counting   =     21422.65208726   -21556.96843230
  entropy T*S    EENTRO =        -0.04519538
  eigenvalues    EBANDS =     -8296.14693506
  atomic energy  EATOM  =     27815.60422923
  Solvation  Ediel_sol  =         0.00000000
  ---------------------------------------------------
  free energy    TOTEN  =     -1300.02418839 eV

  energy without entropy =    -1299.97899301  energy(sigma->0) =    -1300.00159070


--------------------------------------------------------------------------------------------------------




--------------------------------------- Iteration      1(   9)  ---------------------------------------


    POTLOK:  cpu time    0.3104: real time    0.3105
    SETDIJ:  cpu time    0.0589: real time    0.0588
     EDDAV:  cpu time   23.2321: real time   23.2593
       DOS:  cpu time    0.0057: real time    0.0057
    CHARGE:  cpu time    0.7396: real time    0.7423
    MIXING:  cpu time    0.0162: real time    0.0263
    --------------------------------------------
      LOOP:  cpu time   24.3629: real time   24.4030

 eigenvalue-minimisations  :  7488
 total energy-change (2. order) :-0.3197358E+03  (-0.3860037E+03)
 number of electron     599.9999972 magnetization      -0.0005101
 augmentation part       55.5597023 magnetization       0.0202253

 Broyden mixing:
  rms(total) = 0.32952E+02    rms(broyden)= 0.32952E+02
  rms(prec ) = 0.33427E+02
  weight for this iteration     100.00

 eigenvalues of (default mixing * dielectric matrix)
  average eigenvalue GAMMA=   0.0832
  0.0832

 Free energy of the ion-electron system (eV)
  ---------------------------------------------------
  alpha Z        PSCENC =       483.32289006
[...]
     15.14931     12.41399      4.49969         0.001230     -0.000881     -0.002833
     13.34867      7.94642      6.94031        -0.002983     -0.002226     -0.005710
     22.66992     26.11049      7.19452         0.002523      0.001542      0.004997
     15.17754      8.44127      4.68167         0.000453     -0.001605      0.000544
     10.65145     13.20026      5.25511         0.000693      0.004465      0.006574
      1.30982     20.83697      8.84219        -0.001530     -0.002692     -0.004256
     20.79454     21.00853      3.58618        -0.000790     -0.002196     -0.000638
     22.47064     24.24467      4.55620         0.000094     -0.000349     -0.002136
     23.06193     24.61063      5.73827        -0.001324     -0.001177     -0.002130
     22.45128     22.39461      8.47649         0.000686     -0.000047      0.000181
     13.50398     11.67786      5.64030         0.000351      0.000156      0.000916
     12.93899      8.78018      2.35754        -0.001376      0.000822      0.003360
      0.91858     21.66585      4.26948         0.002412     -0.001361      0.001941
     12.91744     12.04299      6.82492         0.002055     -0.000389     -0.000702
     13.52314      9.15581      3.54019        -0.003303      0.001190     -0.000315
     11.05068     11.69397      3.80796         0.001110      0.001724     -0.000551
      1.50681     22.02662      5.45470        -0.001186     -0.001319     -0.000125
      0.94006     24.93211      8.74286        -0.002812     -0.003666     -0.003705
     11.07049      9.09956      5.37062        -0.001533     -0.000733      0.002513
     23.03667     22.01950      7.29439        -0.000035     -0.001450      0.002542
      1.52904     24.55793      7.56205        -0.004755     -0.001715     -0.000947
     10.48293      9.46171      6.55576         0.002908      0.001153      0.002306
     10.46586     11.32194      2.62460         0.002510      0.000814      0.002141
     20.37321      1.21347      1.64928         0.001681      0.001801     -0.002209
     20.33320     19.64124      7.49783         0.003012     -0.005242      0.003733
     15.59847     14.44725      6.62477        -0.000346      0.001374     -0.005506
     15.64300      6.40357      2.56176        -0.002402     -0.003378      0.001333
      3.59715     19.25708      4.46119        -0.001132     -0.000515      0.005517
      8.35976     14.08589      3.59986         0.001140      0.003207     -0.003380
      3.64222      1.51997      4.64459         0.002474      0.005294     -0.004345
      8.38628      6.69814      5.55662         0.001783     -0.001017      0.005713
     19.70424     26.05564      7.54466        -0.000164     -0.000133     -0.000222
     20.99969      2.81379      5.66384        -0.001268      0.002761     -0.000447
     20.96466     18.04799      3.48421        -0.000322     -0.001487     -0.002117
     14.96434     15.36983      4.60893         0.001467      0.001937     -0.001611
     15.02179      5.47778      4.58019        -0.000428     -0.003645     -0.000006
      4.27035     20.87093      8.49924        -0.001406     -0.002325     -0.003609
     16.27208     12.83430      2.58603         0.000746      0.003035      0.000524
     16.31194      8.02582      6.60255         0.000720     -0.002933      0.000619
      7.69201     13.14656      5.59496        -0.002242     -0.000686      0.002879
      2.96318     18.32945      6.47483        -0.002547      0.001406      0.002587
      3.01413      2.45435      2.63235         0.001024     -0.000756     -0.002623
      9.01127      5.09223      1.53902         0.000659      0.001533      0.003459
     19.66267     20.58192      5.50430        -0.000119     -0.004427     -0.000550
      4.30530     25.68927      4.50939         0.001362      0.000369      0.002030
      7.71636      7.65404      3.57008         0.001068     -0.004432     -0.002016
      8.99649     15.68228      7.61565        -0.001166      0.000262     -0.001063
 -----------------------------------------------------------------------------------
    total drift:                               -0.012886     -0.002257      0.069158


--------------------------------------------------------------------------------------------------------



  FREE ENERGIE OF THE ION-ELECTRON SYSTEM (eV)
  ---------------------------------------------------
  free  energy   TOTEN  =     -1185.87547228 eV

  energy  without entropy=    -1185.84096936  energy(sigma->0) =    -1185.85822082
 


--------------------------------------------------------------------------------------------------------


    POTLOK:  cpu time    0.3846: real time    0.3854


--------------------------------------------------------------------------------------------------------




--------------------------------------------------------------------------------------------------------


  
 reached required accuracy - stopping structural energy minimisation
 writing wavefunctions
     LOOP+:  cpu time 1552.0452: real time 1571.6441
    4ORBIT:  cpu time    0.0000: real time    0.0000
 


 total charge     
 
# of ion       s       p       d       tot
------------------------------------------
    1        0.870   1.768   0.000   2.637
    2        0.868   1.770   0.000   2.639
    3        0.870   1.767   0.000   2.637
    4        0.870   1.768   0.000   2.637
    5        0.868   1.770   0.000   2.639
    6        0.868   1.770   0.000   2.638
    7        0.868   1.770   0.000   2.639
    8        0.870   1.768   0.000   2.637
    9        0.868   1.770   0.000   2.639
   10        0.870   1.768   0.000   2.637
   11        0.868   1.771   0.000   2.639
   12        0.868   1.770   0.000   2.639
   13        0.868   1.770   0.000   2.639
   14        0.870   1.767   0.000   2.637
   15        0.870   1.767   0.000   2.637
   16        0.869   1.767   0.000   2.637
   17        0.863   1.716   0.000   2.579
   18        0.863   1.717   0.000   2.580
   19        0.863   1.717   0.000   2.580
   20        0.863   1.717   0.000   2.580
   21        0.863   1.717   0.000   2.580
   22        0.863   1.716   0.000   2.579
   23        0.863   1.716   0.000   2.579
   24        0.863   1.716   0.000   2.579
   25        0.863   1.716   0.000   2.579
   26        0.863   1.717   0.000   2.580
   27        0.863   1.717   0.000   2.580
   28        0.863   1.717   0.000   2.580
   29        0.863   1.715   0.000   2.578
   30        0.863   1.716   0.000   2.579
   31        0.863   1.716   0.000   2.579
   32        0.863   1.717   0.000   2.580
   33        0.865   1.786   0.000   2.651
   34        0.865   1.785   0.000   2.650
   35        0.865   1.785   0.000   2.650
   36        0.865   1.785   0.000   2.650
   37        0.865   1.785   0.000   2.650
   38        0.865   1.785   0.000   2.650
   39        0.865   1.785   0.000   2.651
   40        0.865   1.785   0.000   2.651
   41        0.865   1.785   0.000   2.651
   42        0.865   1.785   0.000   2.650
   43        0.865   1.785   0.000   2.650
   44        0.865   1.785   0.000   2.650
   45        0.865   1.785   0.000   2.650
   46        0.865   1.786   0.000   2.651
   47        0.865   1.785   0.000   2.651
   48        0.865   1.785   0.000   2.650
   49        0.870   1.767   0.000   2.637
   50        0.870   1.767   0.000   2.637
   51        0.870   1.767   0.000   2.637
   52        0.870   1.767   0.000   2.637
   53        0.870   1.767   0.000   2.637
   54        0.870   1.767   0.000   2.637
   55        0.870   1.767   0.000   2.637
   56        0.870   1.768   0.000   2.637
   57        0.870   1.767   0.000   2.637
   58        0.870   1.767   0.000   2.637
   59        0.870   1.767   0.000   2.637
   60        0.870   1.767   0.000   2.637
   61        0.870   1.767   0.000   2.637
   62        0.870   1.767   0.000   2.637
   63        0.870   1.767   0.000   2.637
   64        0.870   1.767   0.000   2.637
   65        0.847   1.790   0.000   2.637
   66        0.847   1.790   0.000   2.637
   67        0.847   1.789   0.000   2.637
   68        0.847   1.790   0.000   2.637
   69        0.847   1.789   0.000   2.636
   70        0.847   1.789   0.000   2.637
   71        0.847   1.790   0.000   2.637
   72        0.847   1.789   0.000   2.636
   73        0.865   1.790   0.000   2.655
   74        0.865   1.790   0.000   2.655
   75        0.865   1.790   0.000   2.655
   76        0.865   1.790   0.000   2.655
   77        0.865   1.790   0.000   2.655
   78        0.865   1.790   0.000   2.655
   79        0.865   1.790   0.000   2.655
   80        0.865   1.790   0.000   2.655
   81        0.393   0.506   6.049   6.948
   82        0.392   0.505   6.049   6.946
   83        0.393   0.507   6.050   6.949
   84        0.392   0.505   6.049   6.946
   85        0.638   0.048   0.000   0.686
   86        0.639   0.048   0.000   0.687
   87        0.639   0.048   0.000   0.687
   88        0.639   0.048   0.000   0.687
   89        0.639   0.048   0.000   0.687
   90        0.638   0.048   0.000   0.686
   91        0.638   0.048   0.000   0.686
   92        0.638   0.048   0.000   0.686
   93        0.638   0.048   0.000   0.686
   94        0.639   0.048   0.000   0.687
   95        0.639   0.048   0.000   0.687
   96        0.639   0.048   0.000   0.687
   97        0.638   0.048   0.000   0.686
   98        0.638   0.048   0.000   0.686
   99        0.638   0.048   0.000   0.686
  100        0.639   0.048   0.000   0.687
  101        0.636   0.049   0.000   0.685
  102        0.636   0.049   0.000   0.685
  103        0.627   0.051   0.000   0.678
  104        0.627   0.051   0.000   0.678
  105        0.636   0.049   0.000   0.685
  106        0.627   0.051   0.000   0.678
  107        0.627   0.051   0.000   0.678
  108        0.636   0.049   0.000   0.685
  109        0.627   0.051   0.000   0.678
  110        0.627   0.051   0.000   0.678
  111        0.636   0.049   0.000   0.685
  112        0.636   0.049   0.000   0.685
  113        0.627   0.051   0.000   0.678
  114        0.636   0.049   0.000   0.685
  115        0.636   0.049   0.000   0.685
  116        0.627   0.051   0.000   0.678
  117        1.238   2.612   0.000   3.850
  118        1.239   2.611   0.000   3.850
  119        1.238   2.612   0.000   3.850
  120        1.238   2.612   0.000   3.850
  121        1.239   2.611   0.000   3.850
  122        1.239   2.611   0.000   3.850
  123        1.239   2.611   0.000   3.850
  124        1.238   2.612   0.000   3.850
  125        1.239   2.612   0.000   3.850
  126        1.238   2.611   0.000   3.849
  127        1.239   2.612   0.000   3.850
  128        1.239   2.612   0.000   3.850
  129        1.239   2.611   0.000   3.850
  130        1.238   2.611   0.000   3.849
  131        1.238   2.611   0.000   3.849
  132        1.238   2.611   0.000   3.850
  133        1.211   2.726   0.000   3.937
  134        1.211   2.726   0.000   3.937
  135        1.211   2.726   0.000   3.937
  136        1.211   2.726   0.000   3.937
  137        1.211   2.726   0.000   3.936
  138        1.211   2.726   0.000   3.937
  139        1.211   2.726   0.000   3.937
  140        1.211   2.726   0.000   3.936
  141        1.583   3.543   0.000   5.127
  142        1.585   3.537   0.000   5.122
  143        1.585   3.537   0.000   5.122
  144        1.585   3.537   0.000   5.122
  145        1.585   3.537   0.000   5.122
  146        1.583   3.543   0.000   5.127
  147        1.583   3.543   0.000   5.127
  148        1.583   3.543   0.000   5.126
  149        1.583   3.543   0.000   5.127
  150        1.585   3.537   0.000   5.122
  151        1.585   3.537   0.000   5.122
  152        1.585   3.537   0.000   5.122
  153        1.583   3.543   0.000   5.126
  154        1.583   3.543   0.000   5.127
  155        1.583   3.543   0.000   5.127
  156        1.585   3.537   0.000   5.122
--------------------------------------------------
tot        145.907 265.052  24.196 435.155
 


 magnetization (x)
 
# of ion       s       p       d       tot
------------------------------------------
    1        0.003   0.020   0.000   0.023
    2        0.003   0.021   0.000   0.024
    3        0.003   0.020   0.000   0.023
    4       -0.003  -0.020   0.000  -0.023
    5       -0.003  -0.022   0.000  -0.024
    6        0.003   0.021   0.000   0.024
    7       -0.003  -0.021   0.000  -0.024
    8       -0.003  -0.020   0.000  -0.023
    9       -0.003  -0.021   0.000  -0.024
   10        0.003   0.020   0.000   0.023
   11        0.003   0.021   0.000   0.024
   12       -0.003  -0.021   0.000  -0.024
   13        0.003   0.021   0.000   0.024
   14        0.003   0.020   0.000   0.023
   15       -0.003  -0.020   0.000  -0.023
   16       -0.003  -0.020   0.000  -0.023
   17        0.000   0.001   0.000   0.001
   18        0.000   0.001   0.000   0.001
   19        0.000   0.001   0.000   0.001
   20       -0.000  -0.001   0.000  -0.001
   21       -0.000  -0.001   0.000  -0.001
   22        0.000   0.001   0.000   0.001
   23       -0.000  -0.001   0.000  -0.001
   24       -0.000  -0.001   0.000  -0.001
   25       -0.000  -0.001   0.000  -0.001
   26        0.000   0.001   0.000   0.001
   27        0.000   0.001   0.000   0.001
   28       -0.000  -0.001   0.000  -0.001
   29        0.000   0.001   0.000   0.001
   30        0.000   0.001   0.000   0.001
   31       -0.000  -0.001   0.000  -0.001
   32       -0.000  -0.001   0.000  -0.001
   33       -0.000  -0.000   0.000  -0.000
   34       -0.000  -0.000   0.000  -0.000
   35       -0.000  -0.000   0.000  -0.000
   36        0.000   0.000   0.000   0.000
   37        0.000   0.000   0.000   0.000
   38       -0.000  -0.000   0.000  -0.000
   39        0.000   0.000   0.000   0.000
   40        0.000   0.000   0.000   0.000
   41        0.000   0.000   0.000   0.000
   42       -0.000  -0.000   0.000  -0.000
   43       -0.000  -0.000   0.000  -0.000
   44        0.000   0.000   0.000   0.000
   45       -0.000  -0.000   0.000  -0.000
   46       -0.000  -0.000   0.000  -0.000
   47        0.000   0.000   0.000   0.000
   48        0.000   0.000   0.000   0.000
   49        0.000   0.000   0.000   0.000
   50        0.000   0.000   0.000   0.000
   51        0.000   0.000   0.000   0.000
   52       -0.000  -0.000   0.000  -0.000
   53       -0.000  -0.000   0.000  -0.000
   54        0.000   0.000   0.000   0.000
   55       -0.000  -0.000   0.000  -0.000
   56       -0.000  -0.000   0.000  -0.000
   57       -0.000  -0.000   0.000  -0.000
   58        0.000   0.000   0.000   0.000
   59        0.000   0.000   0.000   0.000
   60       -0.000  -0.000   0.000  -0.000
   61        0.000   0.000   0.000   0.000
   62        0.000   0.000   0.000   0.000
   63       -0.000  -0.000   0.000  -0.000
   64       -0.000  -0.000   0.000  -0.000
   65        0.002   0.015   0.000   0.016
   66        0.002   0.015   0.000   0.016
   67       -0.002  -0.015   0.000  -0.016
   68       -0.002  -0.015   0.000  -0.016
   69        0.002   0.015   0.000   0.016
   70       -0.002  -0.015   0.000  -0.016
   71        0.002   0.015   0.000   0.016
   72       -0.002  -0.015   0.000  -0.016
   73        0.000   0.000   0.000   0.000
   74        0.000   0.000   0.000   0.000
   75       -0.000  -0.000   0.000  -0.000
   76       -0.000  -0.000   0.000  -0.000
   77        0.000   0.000   0.000   0.000
   78       -0.000  -0.000   0.000  -0.000
   79        0.000   0.000   0.000   0.000
   80       -0.000  -0.000   0.000  -0.000
   81        0.018   0.079   3.404   3.500
   82        0.018   0.079   3.404   3.500
   83       -0.018  -0.079  -3.403  -3.500
   84       -0.018  -0.078  -3.404  -3.500
   85        0.000  -0.000   0.000   0.000
   86        0.000  -0.000   0.000   0.000
   87        0.000  -0.000   0.000   0.000
   88       -0.000   0.000   0.000  -0.000
   89       -0.000   0.000   0.000  -0.000
   90        0.000  -0.000   0.000   0.000
   91       -0.000   0.000   0.000  -0.000
   92       -0.000   0.000   0.000  -0.000
   93       -0.000   0.000   0.000  -0.000
   94        0.000  -0.000   0.000   0.000
   95        0.000  -0.000   0.000   0.000
   96       -0.000   0.000   0.000  -0.000
   97        0.000  -0.000   0.000   0.000
   98        0.000  -0.000   0.000   0.000
   99       -0.000   0.000   0.000  -0.000
  100       -0.000   0.000   0.000  -0.000
  101       -0.000  -0.000   0.000  -0.000
  102       -0.000  -0.000   0.000  -0.000
  103       -0.000  -0.000   0.000  -0.000
  104        0.000   0.000   0.000   0.000
  105        0.000   0.000   0.000   0.000
  106       -0.000  -0.000   0.000  -0.000
  107        0.000   0.000   0.000   0.000
  108        0.000   0.000   0.000   0.000
  109        0.000   0.000   0.000   0.000
  110       -0.000  -0.000   0.000  -0.000
  111       -0.000  -0.000   0.000  -0.000
  112        0.000   0.000   0.000   0.000
  113       -0.000  -0.000   0.000  -0.000
  114       -0.000  -0.000   0.000  -0.000
  115        0.000   0.000   0.000   0.000
  116        0.000   0.000   0.000   0.000
  117        0.011   0.040   0.000   0.051
  118        0.014   0.044   0.000   0.058
  119        0.011   0.040   0.000   0.051
  120       -0.011  -0.040   0.000  -0.052
  121       -0.014  -0.044   0.000  -0.058
  122        0.014   0.044   0.000   0.058
  123       -0.014  -0.044   0.000  -0.058
  124       -0.011  -0.040   0.000  -0.052
  125       -0.014  -0.044   0.000  -0.058
  126        0.011   0.040   0.000   0.051
  127        0.014   0.044   0.000   0.058
  128       -0.014  -0.044   0.000  -0.058
  129        0.014   0.044   0.000   0.058
  130        0.011   0.040   0.000   0.051
  131       -0.011  -0.040   0.000  -0.051
  132       -0.011  -0.040   0.000  -0.052
  133        0.000   0.001   0.000   0.001
  134        0.000   0.001   0.000   0.001
  135       -0.000  -0.001   0.000  -0.001
  136       -0.000  -0.001   0.000  -0.001
  137        0.000   0.001   0.000   0.001
  138       -0.000  -0.001   0.000  -0.001
  139        0.000   0.001   0.000   0.001
  140       -0.000  -0.001   0.000  -0.001
  141        0.000   0.001   0.000   0.002
  142        0.000   0.001   0.000   0.001
  143        0.000   0.001   0.000   0.001
  144       -0.000  -0.001   0.000  -0.001
  145       -0.000  -0.001   0.000  -0.001
  146        0.000   0.001   0.000   0.002
  147       -0.000  -0.002   0.000  -0.002
  148       -0.000  -0.002   0.000  -0.002
  149       -0.000  -0.002   0.000  -0.002
  150        0.000   0.001   0.000   0.001
  151        0.000   0.001   0.000   0.001
  152       -0.000  -0.001   0.000  -0.001
  153        0.000   0.001   0.000   0.002
  154        0.000   0.001   0.000   0.002
  155       -0.000  -0.002   0.000  -0.002
  156       -0.000  -0.001   0.000  -0.001
--------------------------------------------------
tot         -0.000  -0.001   0.000  -0.001
 

 total amount of memory used by VASP MPI-rank0   106080. kBytes
=======================================================================

   base      :      30000. kBytes
   nonlr-proj:       6373. kBytes
   fftplans  :       8717. kBytes
   grid      :      24130. kBytes
   one-center:       1213. kBytes
   wavefun   :      35647. kBytes
 
  
  
 General timing and accounting informations for this job:
 ========================================================
  
                  Total CPU time used (sec):     1752.175
                            User time (sec):     1636.211
                          System time (sec):      115.964
                         Elapsed time (sec):     1783.138
  
                   Maximum memory used (kb):      929412.
                   Average memory used (kb):           0.
  
                          Minor page faults:       111126
                          Major page faults:            7
                 Voluntary context switches:        45187
