       N       E                     dE             d eps       ncg     rms          rms(c)
DAV:   1     0.545566730676E+04    0.54557E+04   -0.27550E+05  9216   0.145E+03
DAV:   2    -0.325117262145E+03   -0.57808E+04   -0.55557E+04 13056   0.326E+02
DAV:   3    -0.126230530558E+04   -0.93719E+03   -0.93009E+03 10912   0.139E+02
DAV:   4    -0.129534259971E+04   -0.33037E+02   -0.32800E+02 12256   0.348E+01
DAV:   5    -0.129633455034E+04   -0.99195E+00   -0.99009E+00 13664   0.551E+00    0.850E+01
DAV:   6    -0.148865359867E+04   -0.19232E+03   -0.23431E+03 14304   0.923E+01    0.217E+02
DAV:   7    -0.139677518840E+04    0.91878E+02   -0.20141E+02 10560   0.330E+01    0.138E+02
DAV:   8    -0.116044869381E+04    0.23633E+03   -0.22996E+02 12896   0.106E+02    0.307E+01
DAV:   9    -0.117265883655E+04   -0.12210E+02   -0.13074E+02 12704   0.211E+01    0.369E+01
DAV:  10    -0.116816047485E+04    0.44984E+01   -0.11992E+02 13248   0.194E+01    0.261E+01
DAV:  11    -0.118228161585E+04   -0.14121E+02   -0.10535E+02 12672   0.305E+01    0.549E+01
DAV:  12    -0.116648730360E+04    0.15794E+02   -0.50914E+01 12800   0.291E+01    0.129E+01
DAV:  13    -0.116787442073E+04   -0.13871E+01   -0.49260E+00 13408   0.726E+00    0.872E+00
DAV:  14    -0.116801862395E+04   -0.14420E+00   -0.89118E-01 13728   0.453E+00    0.708E+00
DAV:  15    -0.116800250145E+04    0.16123E-01   -0.21178E-01 13536   0.226E+00    0.543E+00
DAV:  16    -0.116788022546E+04    0.12228E+00   -0.24402E-01 13664   0.367E+00    0.318E+00
DAV:  17    -0.116778357367E+04    0.96652E-01   -0.24924E-01 13472   0.323E+00    0.178E+00
DAV:  18    -0.116773735492E+04    0.46219E-01   -0.18136E-01 13600   0.200E+00    0.118E+00
DAV:  19    -0.116774197566E+04   -0.46207E-02   -0.99683E-02 13024   0.133E+00    0.880E-01
DAV:  20    -0.116778877079E+04   -0.46795E-01   -0.51212E-02 14112   0.122E+00    0.652E-01
DAV:  21    -0.116790349334E+04   -0.11472E+00   -0.76786E-02 12800   0.936E-01    0.106E+00
DAV:  22    -0.116795251685E+04   -0.49024E-01   -0.41257E-02 12160   0.550E-01    0.526E-01
DAV:  23    -0.116805447042E+04   -0.10195E+00   -0.21970E-02 11488   0.497E-01    0.485E-01
DAV:  24    -0.116813655419E+04   -0.82084E-01   -0.12951E-02 11808   0.254E-01    0.415E-01
DAV:  25    -0.116819803531E+04   -0.61481E-01   -0.56578E-03 12576   0.231E-01    0.299E-01
DAV:  26    -0.116827913690E+04   -0.81102E-01   -0.64810E-03 11008   0.169E-01    0.248E-01
DAV:  27    -0.116834222099E+04   -0.63084E-01   -0.71736E-03 11776   0.243E-01    0.208E-01
DAV:  28    -0.116835550781E+04   -0.13287E-01   -0.18287E-03 12032   0.128E-01    0.124E-01
DAV:  29    -0.116836155898E+04   -0.60512E-02   -0.54693E-04 12992   0.679E-02    0.718E-02
DAV:  30    -0.116836787403E+04   -0.63150E-02   -0.67274E-04 11232   0.730E-02    0.610E-02
DAV:  31    -0.116837062653E+04   -0.27525E-02   -0.35597E-04 11936   0.608E-02    0.673E-02
DAV:  32    -0.116837204071E+04   -0.14142E-02   -0.12771E-04 11616   0.386E-02    0.258E-02
DAV:  33    -0.116837349430E+04   -0.14536E-02   -0.93188E-05 12000   0.291E-02    0.342E-02
DAV:  34    -0.116837451117E+04   -0.10169E-02   -0.56422E-05 11296   0.207E-02    0.135E-02
DAV:  35    -0.116837542869E+04   -0.91753E-03   -0.38099E-05 10464   0.861E-03    0.695E-03
DAV:  36    -0.116837622419E+04   -0.79549E-03   -0.25360E-05 10368   0.672E-03    0.728E-03
DAV:  37    -0.116837667427E+04   -0.45009E-03   -0.10234E-05 10048   0.522E-03    0.405E-03
DAV:  38    -0.116837701826E+04   -0.34399E-03   -0.74435E-06  9824   0.416E-03    0.452E-03
DAV:  39    -0.116837721251E+04   -0.19425E-03   -0.32954E-06  9536   0.358E-03    0.190E-03
DAV:  40    -0.116837734839E+04   -0.13589E-03   -0.22624E-06  8960   0.175E-03    0.133E-03
DAV:  41    -0.116837741641E+04   -0.68014E-04   -0.67544E-07  7648   0.141E-03    0.115E-03
DAV:  42    -0.116837745531E+04   -0.38900E-04   -0.59013E-07  7552   0.127E-03    0.929E-04
DAV:  43    -0.116837746781E+04   -0.12509E-04   -0.21351E-07  7360   0.866E-04    0.637E-04
DAV:  44    -0.116837747490E+04   -0.70841E-05   -0.13509E-07  7264   0.627E-04    0.349E-04
DAV:  45    -0.116837748183E+04   -0.69360E-05   -0.15067E-07  7136   0.598E-04    0.286E-04
DAV:  46    -0.116837748447E+04   -0.26338E-05   -0.84141E-08  7232   0.489E-04    0.237E-04
DAV:  47    -0.116837748522E+04   -0.75249E-06   -0.41729E-08  6400   0.358E-04
   1 F= -.11792305E+04 E0= -.11792256E+04  d E =-.117923E+04  mag=     0.0001
