 vasp.6.0.8 29Jun18 (build Mar 14 2019 11:44:20) complex                        
  
 executed on             LinuxIFC date 2021.01.11  19:24:23
 running  128 mpi-ranks, with    1 threads/rank
 distrk:  each k-point on  128 cores,    1 groups
 distr:  one band on NCORES_PER_BAND=   4 cores,   32 groups


--------------------------------------------------------------------------------------------------------


 INCAR:
 POTCAR:    PAW_PBE C 08Apr2002                   
 POTCAR:    PAW_PBE Co 02Aug2007                  
 POTCAR:    PAW_PBE H 15Jun2001                   
 POTCAR:    PAW_PBE N 08Apr2002                   
 POTCAR:    PAW_PBE O 08Apr2002                   
 POTCAR:    PAW_PBE C 08Apr2002                   
   VRHFIN =C: s2p2                                                              
   LEXCH  = PE                                                                  
   EATOM  =   147.1560 eV,   10.8157 Ry                                         
                                                                                
   TITEL  = PAW_PBE C 08Apr2002                                                 
   LULTRA =        F    use ultrasoft PP ?                                      
   IUNSCR =        1    unscreen: 0-lin 1-nonlin 2-no                           
   RPACOR =    1.200    partial core radius                                     
   POMASS =   12.011; ZVAL   =    4.000    mass and valenz                      
   RCORE  =    1.500    outmost cutoff radius                                   
   RWIGS  =    1.630; RWIGS  =    0.863    wigner-seitz radius (au A)           
   ENMAX  =  400.000; ENMIN  =  300.000 eV                                      
   ICORE  =        2    local potential                                         
   LCOR   =        T    correct aug charges                                     
   LPAW   =        T    paw PP                                                  
   EAUG   =  644.873                                                            
   DEXC   =    0.000                                                            
   RMAX   =    1.529    core radius for proj-oper                               
   RAUG   =    1.300    factor for augmentation sphere                          
   RDEP   =    1.501    radius for radial grids                                 
   RDEPT  =    1.300    core radius for aug-charge                              
                                                                                
   Atomic configuration                                                         
    4 entries                                                                   
     n  l   j            E        occ.                                          
     1  0  0.50      -273.3789   2.0000                                         
     2  0  0.50       -13.7508   2.0000                                         
     2  1  0.50        -5.2854   2.0000                                         
     3  2  1.50        -5.4423   0.0000                                         
   Description                                                                  
     l       E           TYP  RCUT    TYP  RCUT                                 
     0    -13.7508458     23  1.200                                             
     0     -8.2022199     23  1.200                                             
     1     -5.2854383     23  1.500                                             
     1     34.0145650     23  1.500                                             
     2     -5.4423304      7  1.500                                             
  local pseudopotential read in
  partial core-charges read in
  partial kinetic energy density read in
  atomic valenz-charges read in
  non local Contribution for L=           0  read in
    real space projection operators read in
  non local Contribution for L=           0  read in
    real space projection operators read in
  non local Contribution for L=           1  read in
    real space projection operators read in
  non local Contribution for L=           1  read in
    real space projection operators read in
    PAW grid and wavefunctions read in
 
   number of l-projection  operators is LMAX  =           4
   number of lm-projection operators is LMMAX =           8
 
 POTCAR:    PAW_PBE Co 02Aug2007                  
   VRHFIN =Co: d8 s1                                                            
   LEXCH  = PE                                                                  
   EATOM  =   813.3670 eV,   59.7808 Ry                                         
                                                                                
   TITEL  = PAW_PBE Co 02Aug2007                                                
   LULTRA =        F    use ultrasoft PP ?                                      
   IUNSCR =        1    unscreen: 0-lin 1-nonlin 2-no                           
   RPACOR =    2.000    partial core radius                                     
   POMASS =   58.933; ZVAL   =    9.000    mass and valenz                      
   RCORE  =    2.300    outmost cutoff radius                                   
   RWIGS  =    2.460; RWIGS  =    1.302    wigner-seitz radius (au A)           
   ENMAX  =  267.968; ENMIN  =  200.976 eV                                      
   RCLOC  =    1.203    cutoff for local pot                                    
   LCOR   =        T    correct aug charges                                     
   LPAW   =        T    paw PP                                                  
   EAUG   =  477.818                                                            
   DEXC   =    0.000                                                            
   RMAX   =    2.360    core radius for proj-oper                               
   RAUG   =    1.300    factor for augmentation sphere                          
   RDEP   =    2.393    radius for radial grids                                 
   RDEPT  =    1.864    core radius for aug-charge                              
                                                                                
   Atomic configuration                                                         
    9 entries                                                                   
     n  l   j            E        occ.                                          
     1  0  0.50     -7587.6674   2.0000                                         
     2  0  0.50      -893.6084   2.0000                                         
     2  1  1.50      -764.5805   6.0000                                         
     3  0  0.50       -97.5973   2.0000                                         
     3  1  1.50       -60.9648   6.0000                                         
     3  2  2.50        -4.2382   8.0000                                         
     4  0  0.50        -4.3746   1.0000                                         
     4  1  1.50        -4.0817   0.0000                                         
     4  3  2.50        -1.3606   0.0000                                         
   Description                                                                  
     l       E           TYP  RCUT    TYP  RCUT                                 
     2     -4.2382362     23  2.300                                             
     2     -5.5988188     23  2.300                                             
     0     -4.3745797     23  2.300                                             
     0      5.7660125     23  2.300                                             
     1     -2.7211652     23  2.300                                             
     1     16.9860234     23  2.300                                             
  local pseudopotential read in
  partial core-charges read in
  partial kinetic energy density read in
  atomic valenz-charges read in
  non local Contribution for L=           2  read in
    real space projection operators read in
  non local Contribution for L=           2  read in
    real space projection operators read in
  non local Contribution for L=           0  read in
    real space projection operators read in
  non local Contribution for L=           0  read in
    real space projection operators read in
  non local Contribution for L=           1  read in
    real space projection operators read in
  non local Contribution for L=           1  read in
    real space projection operators read in
    PAW grid and wavefunctions read in
 
   number of l-projection  operators is LMAX  =           6
   number of lm-projection operators is LMMAX =          18
 
 POTCAR:    PAW_PBE H 15Jun2001                   
   VRHFIN =H: ultrasoft test                                                    
   LEXCH  = PE                                                                  
   EATOM  =    12.4884 eV,    0.9179 Ry                                         
                                                                                
   TITEL  = PAW_PBE H 15Jun2001                                                 
   LULTRA =        F    use ultrasoft PP ?                                      
   IUNSCR =        0    unscreen: 0-lin 1-nonlin 2-no                           
   RPACOR =    0.000    partial core radius                                     
   POMASS =    1.000; ZVAL   =    1.000    mass and valenz                      
   RCORE  =    1.100    outmost cutoff radius                                   
   RWIGS  =    0.700; RWIGS  =    0.370    wigner-seitz radius (au A)           
   ENMAX  =  250.000; ENMIN  =  200.000 eV                                      
   RCLOC  =    0.701    cutoff for local pot                                    
   LCOR   =        T    correct aug charges                                     
   LPAW   =        T    paw PP                                                  
   EAUG   =  400.000                                                            
   RMAX   =    1.123    core radius for proj-oper                               
   RAUG   =    1.200    factor for augmentation sphere                          
   RDEP   =    1.112    radius for radial grids                                 
   RDEPT  =    0.926    core radius for aug-charge                              
                                                                                
   Atomic configuration                                                         
    2 entries                                                                   
     n  l   j            E        occ.                                          
     1  0  0.50        -6.4927   1.0000                                         
     2  1  0.50        -3.4015   0.0000                                         
   Description                                                                  
     l       E           TYP  RCUT    TYP  RCUT                                 
     0     -6.4927494     23  1.100                                             
     0      6.8029130     23  1.100                                             
     1     -4.0817478     23  1.100                                             
  local pseudopotential read in
  atomic valenz-charges read in
  non local Contribution for L=           0  read in
    real space projection operators read in
  non local Contribution for L=           0  read in
    real space projection operators read in
  non local Contribution for L=           1  read in
    real space projection operators read in
    PAW grid and wavefunctions read in
 
   number of l-projection  operators is LMAX  =           3
   number of lm-projection operators is LMMAX =           5
 
 POTCAR:    PAW_PBE N 08Apr2002                   
   VRHFIN =N: s2p3                                                              
   LEXCH  = PE                                                                  
   EATOM  =   264.5486 eV,   19.4438 Ry                                         
                                                                                
   TITEL  = PAW_PBE N 08Apr2002                                                 
   LULTRA =        F    use ultrasoft PP ?                                      
   IUNSCR =        1    unscreen: 0-lin 1-nonlin 2-no                           
   RPACOR =    1.200    partial core radius                                     
   POMASS =   14.001; ZVAL   =    5.000    mass and valenz                      
   RCORE  =    1.500    outmost cutoff radius                                   
   RWIGS  =    1.400; RWIGS  =    0.741    wigner-seitz radius (au A)           
   ENMAX  =  400.000; ENMIN  =  300.000 eV                                      
   ICORE  =        2    local potential                                         
   LCOR   =        T    correct aug charges                                     
   LPAW   =        T    paw PP                                                  
   EAUG   =  627.112                                                            
   DEXC   =    0.000                                                            
   RMAX   =    1.529    core radius for proj-oper                               
   RAUG   =    1.300    factor for augmentation sphere                          
   RDEP   =    1.514    radius for radial grids                                 
   RDEPT  =    1.338    core radius for aug-charge                              
                                                                                
   Atomic configuration                                                         
    4 entries                                                                   
     n  l   j            E        occ.                                          
     1  0  0.50      -384.7179   2.0000                                         
     2  0  0.50       -18.5828   2.0000                                         
     2  1  0.50        -7.0898   3.0000                                         
     3  2  1.50        -6.8029   0.0000                                         
   Description                                                                  
     l       E           TYP  RCUT    TYP  RCUT                                 
     0    -18.5828119     23  1.200                                             
     0    -13.5018863     23  1.200                                             
     1     -7.0897853     23  1.500                                             
     1      9.5240782     23  1.500                                             
     2     -6.8029130      7  1.500                                             
  local pseudopotential read in
  partial core-charges read in
  partial kinetic energy density read in
  atomic valenz-charges read in
  non local Contribution for L=           0  read in
    real space projection operators read in
  non local Contribution for L=           0  read in
    real space projection operators read in
  non local Contribution for L=           1  read in
    real space projection operators read in
  non local Contribution for L=           1  read in
    real space projection operators read in
    PAW grid and wavefunctions read in
 
   number of l-projection  operators is LMAX  =           4
   number of lm-projection operators is LMMAX =           8
 
 POTCAR:    PAW_PBE O 08Apr2002                   
   VRHFIN =O: s2p4                                                              
   LEXCH  = PE                                                                  
   EATOM  =   432.3788 eV,   31.7789 Ry                                         
                                                                                
   TITEL  = PAW_PBE O 08Apr2002                                                 
   LULTRA =        F    use ultrasoft PP ?                                      
   IUNSCR =        1    unscreen: 0-lin 1-nonlin 2-no                           
   RPACOR =    1.200    partial core radius                                     
   POMASS =   16.000; ZVAL   =    6.000    mass and valenz                      
   RCORE  =    1.520    outmost cutoff radius                                   
   RWIGS  =    1.550; RWIGS  =    0.820    wigner-seitz radius (au A)           
   ENMAX  =  400.000; ENMIN  =  300.000 eV                                      
   ICORE  =        2    local potential                                         
   LCOR   =        T    correct aug charges                                     
   LPAW   =        T    paw PP                                                  
   EAUG   =  605.392                                                            
   DEXC   =    0.000                                                            
   RMAX   =    1.553    core radius for proj-oper                               
   RAUG   =    1.300    factor for augmentation sphere                          
   RDEP   =    1.550    radius for radial grids                                 
   RDEPT  =    1.329    core radius for aug-charge                              
                                                                                
   Atomic configuration                                                         
    4 entries                                                                   
     n  l   j            E        occ.                                          
     1  0  0.50      -514.6923   2.0000                                         
     2  0  0.50       -23.9615   2.0000                                         
     2  1  0.50        -9.0305   4.0000                                         
     3  2  1.50        -9.5241   0.0000                                         
   Description                                                                  
     l       E           TYP  RCUT    TYP  RCUT                                 
     0    -23.9615318     23  1.200                                             
     0     -9.5240782     23  1.200                                             
     1     -9.0304911     23  1.520                                             
     1      8.1634956     23  1.520                                             
     2     -9.5240782      7  1.500                                             
  local pseudopotential read in
  partial core-charges read in
  partial kinetic energy density read in
  kinetic energy density of atom read in
  atomic valenz-charges read in
  non local Contribution for L=           0  read in
    real space projection operators read in
  non local Contribution for L=           0  read in
    real space projection operators read in
  non local Contribution for L=           1  read in
    real space projection operators read in
  non local Contribution for L=           1  read in
    real space projection operators read in
    PAW grid and wavefunctions read in
 
   number of l-projection  operators is LMAX  =           4
   number of lm-projection operators is LMMAX =           8
 
 Optimization of the real space projectors (new method)

 maximal supplied QI-value         = 25.13
 optimisation between [QCUT,QGAM] = [ 12.32, 24.88] = [ 42.47,173.37] Ry 
 Optimized for a Real-space Cutoff    1.06 Angstroem

   l    n(q)    QCUT    max X(q) W(low)/X(q) W(high)/X(q)  e(spline) 
   0      8    12.315   115.676    0.34E-03    0.18E-03    0.23E-06
   0      8    12.315    87.132    0.34E-03    0.18E-03    0.22E-06
   1      7    12.315     4.429    0.45E-03    0.12E-03    0.18E-06
   1      7    12.315     2.733    0.35E-03    0.97E-04    0.15E-06
 Optimization of the real space projectors (new method)

 maximal supplied QI-value         = 16.25
 optimisation between [QCUT,QGAM] = [ 12.51, 25.03] = [ 43.85,175.40] Ry 
 Optimized for a Real-space Cutoff    1.31 Angstroem

   l    n(q)    QCUT    max X(q) W(low)/X(q) W(high)/X(q)  e(spline) 
   2      9    12.514    65.824    0.30E-03    0.46E-03    0.43E-06
   2      9    12.514    61.429    0.31E-03    0.46E-03    0.44E-06
   0     10    12.514    56.174    0.90E-04    0.33E-03    0.30E-06
   0     10    12.514    31.263    0.81E-04    0.30E-03    0.28E-06
   1      9    12.514    19.828    0.38E-03    0.65E-04    0.24E-06
   1      9    12.514    15.139    0.32E-03    0.60E-04    0.20E-06
 Optimization of the real space projectors (new method)

 maximal supplied QI-value         = 34.20
 optimisation between [QCUT,QGAM] = [ 12.31, 24.97] = [ 42.46,174.58] Ry 
 Optimized for a Real-space Cutoff    1.00 Angstroem

   l    n(q)    QCUT    max X(q) W(low)/X(q) W(high)/X(q)  e(spline) 
   0      7    12.313    19.460    0.14E-03    0.42E-03    0.16E-06
   0      7    12.313    12.209    0.12E-03    0.40E-03    0.16E-06
   1      7    12.313     4.655    0.33E-03    0.59E-03    0.89E-07
 Optimization of the real space projectors (new method)

 maximal supplied QI-value         = 25.13
 optimisation between [QCUT,QGAM] = [ 12.32, 24.88] = [ 42.47,173.37] Ry 
 Optimized for a Real-space Cutoff    1.20 Angstroem

   l    n(q)    QCUT    max X(q) W(low)/X(q) W(high)/X(q)  e(spline) 
   0      9    12.315    79.467    0.14E-03    0.22E-04    0.37E-06
   0      9    12.315    66.151    0.14E-03    0.23E-04    0.36E-06
   1      8    12.315    22.077    0.30E-03    0.54E-03    0.45E-06
   1      8    12.315    15.894    0.30E-03    0.55E-03    0.45E-06
 Optimization of the real space projectors (new method)

 maximal supplied QI-value         = 24.76
 optimisation between [QCUT,QGAM] = [ 12.38, 25.00] = [ 42.90,175.06] Ry 
 Optimized for a Real-space Cutoff    1.13 Angstroem

   l    n(q)    QCUT    max X(q) W(low)/X(q) W(high)/X(q)  e(spline) 
   0      8    12.378    20.381    0.16E-03    0.54E-05    0.27E-06
   0      8    12.378    15.268    0.17E-03    0.61E-05    0.29E-06
   1      8    12.378     5.964    0.38E-03    0.23E-03    0.28E-06
   1      8    12.378     5.382    0.33E-03    0.20E-03    0.25E-06
  PAW_PBE C 08Apr2002                   :
 energy of atom  1       EATOM= -147.1560
 kinetic energy error for atom=    0.0057 (will be added to EATOM!!)
  PAW_PBE Co 02Aug2007                  :
 energy of atom  2       EATOM= -813.3670
 kinetic energy error for atom=    0.0018 (will be added to EATOM!!)
  PAW_PBE H 15Jun2001                   :
 energy of atom  3       EATOM=  -12.4884
 kinetic energy error for atom=    0.0004 (will be added to EATOM!!)
  PAW_PBE N 08Apr2002                   :
 energy of atom  4       EATOM= -264.5486
 kinetic energy error for atom=    0.0103 (will be added to EATOM!!)
  PAW_PBE O 08Apr2002                   :
 energy of atom  5       EATOM= -432.3788
 kinetic energy error for atom=    0.0168 (will be added to EATOM!!)
 
 
 POSCAR: CoH_5	
  positions in direct lattice
  velocities in cartesian coordinates
 exchange correlation table for  LEXCH =        8
   RHO(1)=    0.500       N(1)  =     2000
   RHO(2)=  100.500       N(2)  =     4000
 


--------------------------------------------------------------------------------------------------------


 ion  position               nearest neighbor table
   1  0.888  0.964  0.122- 107 1.09 117 1.35  65 1.40
   2  0.938  0.983  0.400- 112 1.09 118 1.35  65 1.40
   3  0.888  0.816  0.932- 116 1.09 119 1.35  66 1.40
   4  0.612  0.464  0.621- 110 1.09 120 1.35  67 1.40
   5  0.562  0.297  0.154- 111 1.09 121 1.35  68 1.40
   6  0.062  0.797  0.154- 115 1.09 122 1.35  69 1.40
   7  0.562  0.483  0.899- 101 1.09 123 1.35  67 1.40
   8  0.612  0.316  0.431- 113 1.09 124 1.35  68 1.40
   9  0.438  0.483  0.398- 114 1.09 125 1.35  70 1.40
  10  0.112  0.816  0.431- 104 1.09 126 1.35  69 1.40
  11  0.062  0.983  0.900- 105 1.09 127 1.35  71 1.40
  12  0.438  0.297  0.654- 102 1.09 128 1.35  72 1.40
  13  0.938  0.797  0.655- 108 1.09 129 1.35  66 1.40
  14  0.112  0.964  0.622- 109 1.09 130 1.35  71 1.40
  15  0.388  0.316  0.931- 106 1.09 131 1.35  72 1.40
  16  0.388  0.465  0.120- 103 1.09 132 1.35  70 1.40
  17  0.814  0.030  0.463- 141 1.23 133 1.42  33 1.48
  18  0.845  0.083  0.066- 142 1.23 133 1.42  34 1.48
  19  0.844  0.697  0.988- 143 1.23 134 1.42  35 1.48
  20  0.655  0.583  0.564- 144 1.23 135 1.42  36 1.48
  21  0.656  0.198  0.488- 145 1.23 136 1.42  37 1.48
  22  0.186  0.750  0.091- 146 1.23 137 1.42  38 1.48
  23  0.686  0.530  0.961- 147 1.23 135 1.42  39 1.48
  24  0.686  0.250  0.091- 148 1.23 136 1.42  40 1.48
  25  0.314  0.530  0.461- 149 1.23 138 1.42  41 1.48
  26  0.156  0.697  0.487- 150 1.23 137 1.42  42 1.48
  27  0.155  0.083  0.566- 151 1.23 139 1.42  43 1.48
  28  0.344  0.197  0.988- 152 1.23 140 1.42  44 1.48
  29  0.814  0.750  0.591- 153 1.23 134 1.42  45 1.48
  30  0.186  0.030  0.963- 154 1.23 139 1.42  46 1.48
  31  0.314  0.250  0.591- 155 1.23 140 1.42  47 1.48
  32  0.344  0.583  0.064- 156 1.23 138 1.42  48 1.48
  33  0.773  0.073  0.464-  49 1.39  73 1.42  17 1.48
  34  0.804  0.126  0.077-  50 1.39  73 1.42  18 1.48
  35  0.804  0.655  0.976-  51 1.39  74 1.42  19 1.48
  36  0.696  0.625  0.576-  52 1.39  75 1.42  20 1.48
  37  0.696  0.155  0.476-  53 1.39  76 1.42  21 1.48
  38  0.227  0.707  0.089-  54 1.39  77 1.42  22 1.48
  39  0.727  0.573  0.963-  55 1.39  75 1.42  23 1.48
  40  0.727  0.207  0.090-  56 1.39  76 1.42  24 1.48
  41  0.273  0.573  0.462-  57 1.39  78 1.42  25 1.48
  42  0.196  0.655  0.475-  58 1.39  77 1.42  26 1.48
  43  0.196  0.125  0.577-  59 1.39  79 1.42  27 1.48
  44  0.304  0.155  0.976-  60 1.39  80 1.42  28 1.48
  45  0.773  0.707  0.589-  61 1.39  74 1.42  29 1.48
  46  0.227  0.073  0.964-  62 1.39  79 1.42  30 1.48
  47  0.273  0.207  0.590-  63 1.39  80 1.42  31 1.48
  48  0.304  0.626  0.076-  64 1.39  78 1.42  32 1.48
  49  0.738  0.068  0.654-  88 1.09  33 1.39  53 1.40
  50  0.800  0.172  0.893-  99 1.09  34 1.39  56 1.40
  51  0.800  0.608  0.160-  93 1.09  35 1.39  55 1.40
  52  0.700  0.672  0.392-  90 1.09  36 1.39  61 1.40
  53  0.700  0.109  0.660-  98 1.09  37 1.39  49 1.40
  54  0.262  0.713  0.899-  96 1.09  38 1.39  64 1.40
  55  0.762  0.568  0.153-  86 1.09  39 1.39  51 1.40
  56  0.762  0.213  0.900-  87 1.09  40 1.39  50 1.40
  57  0.238  0.568  0.653-  95 1.09  41 1.39  58 1.40
  58  0.200  0.609  0.659-  91 1.09  42 1.39  57 1.40
  59  0.200  0.172  0.393-  92 1.09  43 1.39  63 1.40
  60  0.300  0.108  0.161-  85 1.09  44 1.39  62 1.40
  61  0.738  0.712  0.399-  89 1.09  45 1.39  52 1.40
  62  0.261  0.068  0.154- 100 1.09  46 1.39  60 1.40
  63  0.238  0.212  0.400-  94 1.09  47 1.39  59 1.40
  64  0.300  0.672  0.892-  97 1.09  48 1.39  54 1.40
  65  0.889  0.997  0.261-   2 1.40   1 1.40 133 1.42
  66  0.889  0.783  0.794-  13 1.40   3 1.40 134 1.42
  67  0.611  0.497  0.759-   7 1.40   4 1.40 135 1.42
  68  0.611  0.283  0.293-   5 1.40   8 1.40 136 1.42
  69  0.111  0.783  0.293-   6 1.40  10 1.40 137 1.42
  70  0.389  0.498  0.259-   9 1.40  16 1.40 138 1.42
  71  0.111  0.997  0.761-  11 1.40  14 1.40 139 1.42
  72  0.389  0.283  0.793-  12 1.40  15 1.40 140 1.42
  73  0.770  0.119  0.274-  33 1.42  34 1.42  76 1.43
  74  0.769  0.661  0.779-  45 1.42  35 1.42  75 1.43
  75  0.730  0.619  0.773-  39 1.42  36 1.42  74 1.43
  76  0.731  0.161  0.280-  40 1.42  37 1.42  73 1.43
  77  0.230  0.661  0.279-  38 1.42  42 1.42  78 1.43
  78  0.270  0.620  0.272-  41 1.42  48 1.42  77 1.43
  79  0.230  0.119  0.774-  46 1.42  43 1.42  80 1.43
  80  0.269  0.161  0.780-  47 1.42  44 1.42  79 1.43
  81  0.979  0.890  0.027- 117 1.95 119 1.95 122 1.96 127 1.96
  82  0.020  0.890  0.527- 126 1.95 130 1.95 129 1.96 118 1.96
  83  0.520  0.390  0.526- 120 1.95 124 1.95 128 1.96 125 1.96
  84  0.479  0.390  0.026- 132 1.95 131 1.95 123 1.96 121 1.96
  85  0.327  0.105  0.309-  60 1.09
  86  0.758  0.531  0.297-  55 1.09
  87  0.758  0.249  0.756-  56 1.09
  88  0.742  0.032  0.798-  49 1.09
  89  0.742  0.749  0.256-  61 1.09
  90  0.673  0.675  0.243-  52 1.09
  91  0.173  0.605  0.808-  58 1.09
  92  0.173  0.175  0.245-  59 1.09
  93  0.827  0.605  0.309-  51 1.09
  94  0.242  0.249  0.256-  63 1.09
  95  0.242  0.532  0.796-  57 1.09
  96  0.258  0.749  0.755-  54 1.09
  97  0.327  0.675  0.743-  64 1.09
  98  0.673  0.105  0.809-  53 1.09
  99  0.827  0.175  0.745-  50 1.09
 100  0.258  0.031  0.298-  62 1.09
 101  0.546  0.498  0.032-   7 1.09
 102  0.454  0.282  0.520-  12 1.09
 103  0.359  0.464  0.983-  16 1.09
 104  0.141  0.816  0.568-  10 1.09
 105  0.046  0.998  0.034-  11 1.09
 106  0.359  0.316  0.068-  15 1.09
 107  0.859  0.964  0.985-   1 1.09
 108  0.954  0.782  0.521-  13 1.09
 109  0.141  0.964  0.485-  14 1.09
 110  0.641  0.464  0.484-   4 1.09
 111  0.546  0.282  0.020-   5 1.09
 112  0.954  0.998  0.534-   2 1.09
 113  0.641  0.316  0.568-   8 1.09
 114  0.454  0.498  0.532-   9 1.09
 115  0.046  0.782  0.020-   6 1.09
 116  0.859  0.816  0.069-   3 1.09
 117  0.934  0.932  0.179-   1 1.35 118 1.37  81 1.95
 118  0.965  0.943  0.347-   2 1.35 117 1.37  82 1.96
 119  0.934  0.848  0.876-   3 1.35 129 1.37  81 1.95
 120  0.565  0.432  0.678-   4 1.35 123 1.37  83 1.95
 121  0.535  0.337  0.206-   5 1.35 124 1.37  84 1.96
 122  0.035  0.837  0.207-   6 1.35 126 1.37  81 1.96
 123  0.535  0.443  0.846-   7 1.35 120 1.37  84 1.96
 124  0.565  0.348  0.375-   8 1.35 121 1.37  83 1.95
 125  0.465  0.443  0.346-   9 1.35 132 1.37  83 1.96
 126  0.065  0.848  0.375-  10 1.35 122 1.37  82 1.95
 127  0.035  0.943  0.847-  11 1.35 130 1.37  81 1.96
 128  0.465  0.337  0.706-  12 1.35 131 1.37  83 1.96
 129  0.965  0.837  0.707-  13 1.35 119 1.37  82 1.96
 130  0.065  0.932  0.679-  14 1.35 127 1.37  82 1.95
 131  0.434  0.348  0.875-  15 1.35 128 1.37  84 1.95
 132  0.435  0.432  0.177-  16 1.35 125 1.37  84 1.95
 133  0.848  0.038  0.263-  18 1.42  17 1.42  65 1.42
 134  0.848  0.742  0.791-  19 1.42  29 1.42  66 1.42
 135  0.652  0.538  0.761-  20 1.42  23 1.42  67 1.42
 136  0.652  0.242  0.291-  21 1.42  24 1.42  68 1.42
 137  0.152  0.742  0.291-  26 1.42  22 1.42  69 1.42
 138  0.348  0.538  0.261-  32 1.42  25 1.42  70 1.42
 139  0.152  0.038  0.763-  27 1.42  30 1.42  71 1.42
 140  0.348  0.242  0.791-  28 1.42  31 1.42  72 1.42
 141  0.819  0.989  0.625-  17 1.23
 142  0.874  0.085  0.896-  18 1.23
 143  0.874  0.695  0.158-  19 1.23
 144  0.626  0.585  0.394-  20 1.23
 145  0.626  0.195  0.658-  21 1.23
 146  0.181  0.791  0.929-  22 1.23
 147  0.681  0.489  0.123-  23 1.23
 148  0.681  0.291  0.929-  24 1.23
 149  0.319  0.489  0.623-  25 1.23
 150  0.126  0.695  0.658-  26 1.23
 151  0.126  0.085  0.396-  27 1.23
 152  0.374  0.195  0.158-  28 1.23
 153  0.819  0.791  0.429-  29 1.23
 154  0.181  0.989  0.125-  30 1.23
 155  0.319  0.291  0.429-  31 1.23
 156  0.374  0.586  0.894-  32 1.23
 

IMPORTANT INFORMATION: All symmetrisations will be switched off!
NOSYMM: (Re-)initialisation of all symmetry stuff for point group C_1.


----------------------------------------------------------------------------------------

                                     Primitive cell                                     

  volume of cell :    3563.3206

  direct lattice vectors                    reciprocal lattice vectors
    22.892574063  0.000172026 -0.002471176     0.043682288 -0.000001599  0.000001471
     0.000798017 26.093034063  4.658797468    -0.000000894  0.039314147 -0.005543358
    -0.000174477  0.862845867  6.119404162     0.000018321 -0.029930472  0.167634848

  length of vectors
    22.892574197 26.505675262  6.179936110     0.043682288  0.039703035  0.170285865

  position of ions in fractional coordinates (direct lattice)
     0.888056683  0.964443421  0.122211128
     0.937852464  0.982783891  0.399967887
     0.888062702  0.815601885  0.931879019
     0.611672899  0.464427708  0.621039732
     0.561976250  0.297232947  0.153558829
     0.061943727  0.797246978  0.154043095
     0.561943709  0.482922026  0.898544200
     0.611716356  0.315718272  0.431081114
     0.437895520  0.482997634  0.398281940
     0.111764351  0.815679537  0.431492630
     0.061975426  0.982787980  0.899844497
     0.437818584  0.297170802  0.653775408
     0.937853142  0.797127838  0.654517058
     0.111745285  0.964319452  0.622375539
     0.388050964  0.315657944  0.931174626
     0.388195152  0.464589032  0.120476356
     0.814276320  0.029944266  0.462753599
     0.844568388  0.082738903  0.065693103
     0.844326051  0.697320391  0.988201949
     0.655457052  0.582699189  0.564217999
     0.655528458  0.197528678  0.487913207
     0.185731950  0.750409882  0.090516516
     0.685648104  0.529808371  0.961323741
     0.685866495  0.250356762  0.091022851
     0.314318528  0.530037531  0.460807431
     0.155532978  0.697477976  0.487438357
     0.155381808  0.082566026  0.565734256
     0.344349594  0.197384742  0.988218193
     0.814131911  0.750206498  0.591161760
     0.185648673  0.029767046  0.962899446
     0.314029536  0.250184086  0.591236932
     0.344479076  0.582903540  0.063674854
     0.773242659  0.073046077  0.464057519
     0.804237093  0.125542243  0.077355838
     0.803993685  0.654565949  0.976010551
     0.695848616  0.625428930  0.576178863
     0.695945571  0.154797387  0.476296171
     0.226821729  0.707366000  0.088748858
     0.726742098  0.572844949  0.962900486
     0.726980920  0.207302706  0.089723261
     0.273232329  0.573080650  0.462354671
     0.195932382  0.654768229  0.475354278
     0.195729285  0.125343771  0.577433011
     0.303986291  0.154618689  0.976484695
     0.773062812  0.707151178  0.589398876
     0.226696644  0.072856045  0.964236018
     0.272980838  0.207094541  0.589828350
     0.304111947  0.625658138  0.075650206
     0.738440526  0.067870029  0.654048919
     0.800271630  0.171756981  0.893456196
     0.799953876  0.608335530  0.159745303
     0.699867915  0.671668343  0.392430021
     0.699967716  0.108615317  0.660270350
     0.261593884  0.712614411  0.898565956
     0.761514282  0.567603484  0.153071613
     0.761833823  0.212528288  0.899802486
     0.238466389  0.567832321  0.652500082
     0.199988670  0.608541341  0.659107093
     0.199709010  0.171542111  0.393493342
     0.299939820  0.108450823  0.160544949
     0.738277728  0.712417205  0.399202893
     0.261467735  0.067705909  0.154322499
     0.238145971  0.212307353  0.399833001
     0.300054984  0.671888221  0.891867032
     0.888654353  0.997406464  0.260568506
     0.888617433  0.782590092  0.793661867
     0.611138738  0.497457402  0.759132135
     0.611221689  0.282736421  0.292777086
     0.111232144  0.782738865  0.292998148
     0.388752267  0.497617385  0.258587897
     0.111210802  0.997304522  0.760653859
     0.388601105  0.282633943  0.793050424
     0.769666013  0.119494309  0.273784179
     0.769490118  0.660658588  0.779375302
     0.730369276  0.619319353  0.772802121
     0.730518775  0.160845911  0.279916486
     0.230451239  0.660885001  0.278774261
     0.269603382  0.619560187  0.272279531
     0.230298895  0.119285116  0.773900510
     0.269431342  0.160647498  0.780045589
     0.979306529  0.890024676  0.027170906
     0.020455159  0.889960034  0.527199449
     0.520387071  0.390044353  0.526387532
     0.479354091  0.390068798  0.026104203
     0.327071968  0.104939244  0.309454952
     0.757855303  0.531343966  0.296759001
     0.758240302  0.248806959  0.756133097
     0.742077827  0.031636841  0.797894081
     0.741879817  0.748717651  0.255662479
     0.672737171  0.675223220  0.243459597
     0.172855218  0.604969188  0.808042853
     0.172541744  0.175060625  0.244651449
     0.827074820  0.604767414  0.308744500
     0.241735711  0.248575069  0.256132972
     0.242163061  0.531578440  0.796183425
     0.257929617  0.748891921  0.754941448
     0.327169746  0.675463047  0.742842517
     0.672815060  0.105095304  0.809099960
     0.827435129  0.175280134  0.744628981
     0.257791203  0.031493060  0.298228470
     0.545926815  0.497822550  0.032338349
     0.453875899  0.282252800  0.520091357
     0.358848467  0.463886449  0.983255535
     0.141198326  0.816431388  0.568375383
     0.045952356  0.997673552  0.033676178
     0.358601663  0.316422779  0.067945960
     0.858637110  0.963760268  0.985172267
     0.953900158  0.782239154  0.520753651
     0.141155696  0.963549692  0.485496648
     0.641027097  0.463670312  0.483951973
     0.545957417  0.282313258  0.019811418
     0.953897984  0.997615219  0.533939026
     0.641153237  0.316487276  0.567926980
     0.453889929  0.497877180  0.532171585
     0.045878198  0.782369456  0.020247547
     0.858618124  0.816362569  0.068688224
     0.934417027  0.931615509  0.178624106
     0.965138564  0.943070965  0.347432317
     0.934470246  0.848363162  0.875594733
     0.565283355  0.431657238  0.677647415
     0.534600105  0.336921011  0.206050488
     0.034574711  0.836890684  0.206841038
     0.534601680  0.443195470  0.846282602
     0.565287316  0.348458239  0.374728814
     0.465181296  0.443218507  0.346206647
     0.065310519  0.848396356  0.375474761
     0.034614265  0.943108379  0.847285324
     0.465125972  0.336912456  0.706072861
     0.965191951  0.836831274  0.707004004
     0.065325150  0.931579958  0.678660900
     0.434428409  0.348451950  0.874690542
     0.434518803  0.431736814  0.177361544
     0.847856674  0.037740637  0.262581523
     0.847749015  0.742318914  0.791382122
     0.652035311  0.537713046  0.761119985
     0.652145351  0.242487203  0.290915687
     0.152121020  0.742496344  0.290690238
     0.347898740  0.537910468  0.260570090
     0.152064233  0.037591550  0.762674801
     0.347740747  0.242334371  0.791181301
     0.819280209  0.989179710  0.624894788
     0.873846276  0.085453062  0.895805880
     0.873501718  0.694546255  0.158430901
     0.626225510  0.585477087  0.394115186
     0.626233433  0.194777248  0.657794618
     0.180696607  0.791207272  0.928571069
     0.680595567  0.489024018  0.123310418
     0.680874572  0.291123079  0.928916288
     0.319364317  0.489263800  0.622863024
     0.126290863  0.694677413  0.657500019
     0.126095906  0.085290865  0.395812581
     0.373577530  0.194672285  0.158253240
     0.819149935  0.790987435  0.429144420
     0.180632642  0.989004624  0.125017958
     0.318966265  0.290955584  0.429122840
     0.373690105  0.585642251  0.893594744

  ion indices of the primitive-cell ions
   primitive index   ion index
                 1           1
                 2           2
                 3           3
                 4           4
                 5           5
                 6           6
                 7           7
                 8           8
                 9           9
                10          10
                11          11
                12          12
                13          13
                14          14
                15          15
                16          16
                17          17
                18          18
                19          19
                20          20
                21          21
                22          22
                23          23
                24          24
                25          25
                26          26
                27          27
                28          28
                29          29
                30          30
                31          31
                32          32
                33          33
                34          34
                35          35
                36          36
                37          37
                38          38
                39          39
                40          40
                41          41
                42          42
                43          43
                44          44
                45          45
                46          46
                47          47
                48          48
                49          49
                50          50
                51          51
                52          52
                53          53
                54          54
                55          55
                56          56
                57          57
                58          58
                59          59
                60          60
                61          61
                62          62
                63          63
                64          64
                65          65
                66          66
                67          67
                68          68
                69          69
                70          70
                71          71
                72          72
                73          73
                74          74
                75          75
                76          76
                77          77
                78          78
                79          79
                80          80
                81          81
                82          82
                83          83
                84          84
                85          85
                86          86
                87          87
                88          88
                89          89
                90          90
                91          91
                92          92
                93          93
                94          94
                95          95
                96          96
                97          97
                98          98
                99          99
               100         100
               101         101
               102         102
               103         103
               104         104
               105         105
               106         106
               107         107
               108         108
               109         109
               110         110
               111         111
               112         112
               113         113
               114         114
               115         115
               116         116
               117         117
               118         118
               119         119
               120         120
               121         121
               122         122
               123         123
               124         124
               125         125
               126         126
               127         127
               128         128
               129         129
               130         130
               131         131
               132         132
               133         133
               134         134
               135         135
               136         136
               137         137
               138         138
               139         139
               140         140
               141         141
               142         142
               143         143
               144         144
               145         145
               146         146
               147         147
               148         148
               149         149
               150         150
               151         151
               152         152
               153         153
               154         154
               155         155
               156         156

----------------------------------------------------------------------------------------

 
 
 KPOINTS: kpoints                                 

Automatic generation of k-mesh.
Space group operators:
 irot       det(A)        alpha          n_x          n_y          n_z        tau_x        tau_y        tau_z
    1     1.000000     0.000000     1.000000     0.000000     0.000000     0.000000     0.000000     0.000000
 
 Subroutine IBZKPT returns following result:
 ===========================================
 
 Found      6 irreducible k-points:
 
 Following reciprocal coordinates:
            Coordinates               Weight
  0.000000  0.000000  0.000000      1.000000
  0.500000 -0.000000  0.000000      1.000000
  0.000000  0.000000  0.250000      2.000000
  0.500000  0.000000  0.250000      2.000000
  0.000000  0.000000  0.500000      1.000000
  0.500000  0.000000  0.500000      1.000000
 
 Following cartesian coordinates:
            Coordinates               Weight
  0.000000  0.000000  0.000000      1.000000
  0.021841 -0.000001  0.000001      1.000000
  0.000005 -0.007483  0.041909      2.000000
  0.021846 -0.007483  0.041909      2.000000
  0.000009 -0.014965  0.083817      1.000000
  0.021850 -0.014966  0.083818      1.000000
 


--------------------------------------------------------------------------------------------------------




 Dimension of arrays:
   k-points           NKPTS =      6   k-points in BZ     NKDIM =      6   number of bands    NBANDS=    384
   number of dos      NEDOS =    301   number of ions     NIONS =    156
   non local maximal  LDIM  =      6   non local SUM 2l+1 LMDIM =     18
   total plane-waves  NPLWV = 896000
   max r-space proj   IRMAX =   2400   max aug-charges    IRDMAX=  10115
   dimension x,y,z NGX =   140 NGY =  160 NGZ =   40
   dimension x,y,z NGXF=   280 NGYF=  320 NGZF=   80
   support grid    NGXF=   280 NGYF=  320 NGZF=   80
   ions per type =              80   4  32  24  16
   NGX,Y,Z   is equivalent  to a cutoff of  10.17, 10.04, 10.76 a.u.
   NGXF,Y,Z  is equivalent  to a cutoff of  20.33, 20.07, 21.52 a.u.

 SYSTEM =  flex_MOF                                
 POSCAR =  CoH_5	                                  

 Startparameter for this run:
   NWRITE =      2    write-flag & timer
   PREC   = normal    normal or accurate (medium, high low for compatibility)
   ISTART =      0    job   : 0-new  1-cont  2-samecut
   ICHARG =      2    charge: 1-file 2-atom 10-const
   ISPIN  =      2    spin polarized calculation?
   LNONCOLLINEAR =      F non collinear calculations
   LSORBIT =      F    spin-orbit coupling
   INIWAV =      1    electr: 0-lowe 1-rand  2-diag
   LASPH  =      F    aspherical Exc in radial PAW
   METAGGA=      F    non-selfconsistent MetaGGA calc.

 Electronic Relaxation 1
   ENCUT  =  600.0 eV  44.10 Ry    6.64 a.u.  45.72 52.94 12.34*2*pi/ulx,y,z
   ENINI  =  600.0     initial cutoff
   ENAUG  =  644.9 eV  augmentation charge cutoff
   NELM   =     80;   NELMIN=  8; NELMDL= -5     # of ELM steps 
   EDIFF  = 0.1E-05   stopping-criterion for ELM
   LREAL  =      T    real-space projection
   NLSPLINE    = F    spline interpolate recip. space projectors
   LCOMPAT=      F    compatible to vasp.4.4
   GGA_COMPAT  = T    GGA compatible to vasp.4.4-vasp.4.6
   LMAXPAW     = -100 max onsite density
   LMAXMIX     =    2 max onsite mixed and CHGCAR
   VOSKOWN=      0    Vosko Wilk Nusair interpolation
   ROPT   =   -0.00050  -0.00050  -0.00050  -0.00050
   ROPT   =   -0.00050
 Ionic relaxation
   EDIFFG = -.8E-02   stopping-criterion for IOM
   NSW    =    500    number of steps for IOM
   NBLOCK =      1;   KBLOCK =    500    inner block; outer block 
   IBRION =      2    ionic relax: 0-MD 1-quasi-New 2-CG
   NFREE  =      1    steps in history (QN), initial steepest desc. (CG)
   ISIF   =      4    stress and relaxation
   IWAVPR =     11    prediction:  0-non 1-charg 2-wave 3-comb
   ISYM   =      0    0-nonsym 1-usesym 2-fastsym
   LCORR  =      T    Harris-Foulkes like correction to forces

   POTIM  = 0.5000    time-step for ionic-motion
   TEIN   =    0.0    initial temperature
   TEBEG  =    0.0;   TEEND  =   0.0 temperature during run
   SMASS  =  -3.00    Nose mass-parameter (am)
   estimated Nose-frequenzy (Omega)   =  0.10E-29 period in steps = 0.13E+47 mass=  -0.120E-25a.u.
   SCALEE = 1.0000    scale energy and forces
   NPACO  =    256;   APACO  = 16.0  distance and # of slots for P.C.
   PSTRESS=    0.0 pullay stress

  Mass of Ions in am
   POMASS =  12.01 58.93  1.00 14.00 16.00
  Ionic Valenz
   ZVAL   =   4.00  9.00  1.00  5.00  6.00
  Atomic Wigner-Seitz radii
   RWIGS  =  -1.00 -1.00 -1.00 -1.00 -1.00
  virtual crystal weights 
   VCA    =   1.00  1.00  1.00  1.00  1.00
   NELECT =     604.0000    total number of electrons
   NUPDOWN=      -1.0000    fix difference up-down

 DOS related values:
   EMIN   =  10.00;   EMAX   =-10.00  energy-range for DOS
   EFERMI =   0.00
   ISMEAR =     0;   SIGMA  =   0.05  broadening in eV -4-tet -1-fermi 0-gaus

 Electronic relaxation 2 (details)
   IALGO  =     38    algorithm
   LDIAG  =      T    sub-space diagonalisation (order eigenvalues)
   LSUBROT=      F    optimize rotation matrix (better conditioning)
   TURBO    =      0    0=normal 1=particle mesh
   IRESTART =      0    0=no restart 2=restart with 2 vectors
   NREBOOT  =      0    no. of reboots
   NMIN     =      0    reboot dimension
   EREF     =   0.00    reference energy to select bands
   IMIX   =      4    mixing-type and parameters
     AMIX     =   0.40;   BMIX     =  1.00
     AMIX_MAG =   1.60;   BMIX_MAG =  1.00
     AMIN     =   0.10
     WC   =   100.;   INIMIX=   1;  MIXPRE=   1;  MAXMIX= -45

 Intra band minimization:
   WEIMIN = 0.0010     energy-eigenvalue tresh-hold
   EBREAK =  0.65E-09  absolut break condition
   DEPER  =   0.30     relativ break condition  

   TIME   =   0.40     timestep for ELM

  volume/ion in A,a.u.               =      22.84       154.14
  Fermi-wavevector in a.u.,A,eV,Ry     =   0.906015  1.712121 11.168528  0.820864
  Thomas-Fermi vector in A             =   2.029652
 
 Write flags
   LWAVE        =      T    write WAVECAR
   LDOWNSAMPLE  =      F    k-point downsampling of WAVECAR
   LCHARG       =      T    write CHGCAR
   LVTOT        =      F    write LOCPOT, total local potential
   LVHAR        =      F    write LOCPOT, Hartree potential only
   LELF         =      F    write electronic localiz. function (ELF)
   LORBIT       =     11    0 simple, 1 ext, 2 COOP (PROOUT), +10 PAW based schemes


 Dipole corrections
   LMONO  =      F    monopole corrections only (constant potential shift)
   LDIPOL =      F    correct potential (dipole corrections)
   IDIPOL =      0    1-x, 2-y, 3-z, 4-all directions 
   EPSILON=  1.0000000 bulk dielectric constant

 Exchange correlation treatment:
   GGA     =    PE    GGA type
   LEXCH   =     8    internal setting for exchange type
   VOSKOWN=      0    Vosko Wilk Nusair interpolation
   LHFCALC =     F    Hartree Fock is set to
   LHFONE  =     F    Hartree Fock one center treatment
   AEXX    =    0.0000 exact exchange contribution

 Linear response parameters
   LEPSILON=     F    determine dielectric tensor
   LRPA    =     F    only Hartree local field effects (RPA)
   LNABLA  =     F    use nabla operator in PAW spheres
   LVEL    =     F    velocity operator in full k-point grid
   LINTERFAST=   F  fast interpolation
   KINTER  =     0    interpolate to denser k-point grid
   CSHIFT  =0.1000    complex shift for real part using Kramers Kronig
   OMEGAMAX=  -1.0    maximum frequency
   DEG_THRESHOLD= 0.2000000E-02 threshold for treating states as degnerate
   RTIME   =   -0.100 relaxation time in fs
  (WPLASMAI=    0.000 imaginary part of plasma frequency in eV, 0.658/RTIME)
   DFIELD  = 0.0000000 0.0000000 0.0000000 field for delta impulse in time
 
 Orbital magnetization related:
   ORBITALMAG=     F  switch on orbital magnetization
   LCHIMAG   =     F  perturbation theory with respect to B field
   DQ        =  0.001000  dq finite difference perturbation B field
   LLRAUG    =     F  two centre corrections for induced B field



--------------------------------------------------------------------------------------------------------


 conjugate gradient relaxation of ions
 charge density and potential will be updated during run
 spin polarized calculation
 Variant of blocked Davidson
 Davidson routine will perform the subspace rotation
 perform sub-space diagonalisation
    after iterative eigenvector-optimisation
 modified Broyden-mixing scheme, WC =      100.0
 initial mixing is a Kerker type mixing with AMIX =  0.4000 and BMIX =      1.0000
 Hartree-type preconditioning will be used
 using additional bands           82
 real space projection scheme for non local part
 use partial core corrections
 calculate Harris-corrections to forces 
   (improved forces if not selfconsistent)
 use gradient corrections 
 use of overlap-Matrix (Vanderbilt PP)
 Gauss-broadening in eV      SIGMA  =   0.05


--------------------------------------------------------------------------------------------------------


  energy-cutoff  :      600.00
  volume of cell :     3563.32
      direct lattice vectors                 reciprocal lattice vectors
    22.892574063  0.000172026 -0.002471176     0.043682288 -0.000001599  0.000001471
     0.000798017 26.093034063  4.658797468    -0.000000894  0.039314147 -0.005543358
    -0.000174477  0.862845867  6.119404162     0.000018321 -0.029930472  0.167634848

  length of vectors
    22.892574197 26.505675262  6.179936110     0.043682288  0.039703035  0.170285865


 
 k-points in units of 2pi/SCALE and weight: kpoints                                 
   0.00000000  0.00000000  0.00000000       0.125
   0.02184114 -0.00000080  0.00000074       0.125
   0.00000458 -0.00748262  0.04190871       0.250
   0.02184572 -0.00748342  0.04190945       0.250
   0.00000916 -0.01496524  0.08381742       0.125
   0.02185030 -0.01496604  0.08381816       0.125
 
 k-points in reciprocal lattice and weights: kpoints                                 
   0.00000000  0.00000000  0.00000000       0.125
   0.50000000 -0.00000000  0.00000000       0.125
   0.00000000  0.00000000  0.25000000       0.250
   0.50000000  0.00000000  0.25000000       0.250
   0.00000000  0.00000000  0.50000000       0.125
   0.50000000  0.00000000  0.50000000       0.125
 
 position of ions in fractional coordinates (direct lattice) 
   0.88805668  0.96444342  0.12221113
   0.93785246  0.98278389  0.39996789
   0.88806270  0.81560189  0.93187902
   0.61167290  0.46442771  0.62103973
   0.56197625  0.29723295  0.15355883
   0.06194373  0.79724698  0.15404310
   0.56194371  0.48292203  0.89854420
   0.61171636  0.31571827  0.43108111
   0.43789552  0.48299763  0.39828194
   0.11176435  0.81567954  0.43149263
   0.06197543  0.98278798  0.89984450
   0.43781858  0.29717080  0.65377541
   0.93785314  0.79712784  0.65451706
   0.11174529  0.96431945  0.62237554
   0.38805096  0.31565794  0.93117463
   0.38819515  0.46458903  0.12047636
   0.81427632  0.02994427  0.46275360
   0.84456839  0.08273890  0.06569310
   0.84432605  0.69732039  0.98820195
   0.65545705  0.58269919  0.56421800
   0.65552846  0.19752868  0.48791321
   0.18573195  0.75040988  0.09051652
   0.68564810  0.52980837  0.96132374
   0.68586650  0.25035676  0.09102285
   0.31431853  0.53003753  0.46080743
   0.15553298  0.69747798  0.48743836
   0.15538181  0.08256603  0.56573426
   0.34434959  0.19738474  0.98821819
   0.81413191  0.75020650  0.59116176
   0.18564867  0.02976705  0.96289945
   0.31402954  0.25018409  0.59123693
   0.34447908  0.58290354  0.06367485
   0.77324266  0.07304608  0.46405752
   0.80423709  0.12554224  0.07735584
   0.80399369  0.65456595  0.97601055
   0.69584862  0.62542893  0.57617886
   0.69594557  0.15479739  0.47629617
   0.22682173  0.70736600  0.08874886
   0.72674210  0.57284495  0.96290049
   0.72698092  0.20730271  0.08972326
   0.27323233  0.57308065  0.46235467
   0.19593238  0.65476823  0.47535428
   0.19572929  0.12534377  0.57743301
   0.30398629  0.15461869  0.97648470
   0.77306281  0.70715118  0.58939888
   0.22669664  0.07285604  0.96423602
   0.27298084  0.20709454  0.58982835
   0.30411195  0.62565814  0.07565021
   0.73844053  0.06787003  0.65404892
   0.80027163  0.17175698  0.89345620
   0.79995388  0.60833553  0.15974530
   0.69986792  0.67166834  0.39243002
   0.69996772  0.10861532  0.66027035
   0.26159388  0.71261441  0.89856596
   0.76151428  0.56760348  0.15307161
   0.76183382  0.21252829  0.89980249
   0.23846639  0.56783232  0.65250008
   0.19998867  0.60854134  0.65910709
   0.19970901  0.17154211  0.39349334
   0.29993982  0.10845082  0.16054495
   0.73827773  0.71241721  0.39920289
   0.26146774  0.06770591  0.15432250
   0.23814597  0.21230735  0.39983300
   0.30005498  0.67188822  0.89186703
   0.88865435  0.99740646  0.26056851
   0.88861743  0.78259009  0.79366187
   0.61113874  0.49745740  0.75913214
   0.61122169  0.28273642  0.29277709
   0.11123214  0.78273886  0.29299815
   0.38875227  0.49761739  0.25858790
   0.11121080  0.99730452  0.76065386
   0.38860110  0.28263394  0.79305042
   0.76966601  0.11949431  0.27378418
   0.76949012  0.66065859  0.77937530
   0.73036928  0.61931935  0.77280212
   0.73051878  0.16084591  0.27991649
   0.23045124  0.66088500  0.27877426
   0.26960338  0.61956019  0.27227953
   0.23029889  0.11928512  0.77390051
   0.26943134  0.16064750  0.78004559
   0.97930653  0.89002468  0.02717091
   0.02045516  0.88996003  0.52719945
   0.52038707  0.39004435  0.52638753
   0.47935409  0.39006880  0.02610420
   0.32707197  0.10493924  0.30945495
   0.75785530  0.53134397  0.29675900
   0.75824030  0.24880696  0.75613310
   0.74207783  0.03163684  0.79789408
   0.74187982  0.74871765  0.25566248
   0.67273717  0.67522322  0.24345960
   0.17285522  0.60496919  0.80804285
   0.17254174  0.17506062  0.24465145
   0.82707482  0.60476741  0.30874450
   0.24173571  0.24857507  0.25613297
   0.24216306  0.53157844  0.79618342
   0.25792962  0.74889192  0.75494145
   0.32716975  0.67546305  0.74284252
   0.67281506  0.10509530  0.80909996
   0.82743513  0.17528013  0.74462898
   0.25779120  0.03149306  0.29822847
   0.54592682  0.49782255  0.03233835
   0.45387590  0.28225280  0.52009136
   0.35884847  0.46388645  0.98325553
   0.14119833  0.81643139  0.56837538
   0.04595236  0.99767355  0.03367618
   0.35860166  0.31642278  0.06794596
   0.85863711  0.96376027  0.98517227
   0.95390016  0.78223915  0.52075365
   0.14115570  0.96354969  0.48549665
   0.64102710  0.46367031  0.48395197
   0.54595742  0.28231326  0.01981142
   0.95389798  0.99761522  0.53393903
   0.64115324  0.31648728  0.56792698
   0.45388993  0.49787718  0.53217159
   0.04587820  0.78236946  0.02024755
   0.85861812  0.81636257  0.06868822
   0.93441703  0.93161551  0.17862411
   0.96513856  0.94307097  0.34743232
   0.93447025  0.84836316  0.87559473
   0.56528335  0.43165724  0.67764741
   0.53460010  0.33692101  0.20605049
   0.03457471  0.83689068  0.20684104
   0.53460168  0.44319547  0.84628260
   0.56528732  0.34845824  0.37472881
   0.46518130  0.44321851  0.34620665
   0.06531052  0.84839636  0.37547476
   0.03461426  0.94310838  0.84728532
   0.46512597  0.33691246  0.70607286
   0.96519195  0.83683127  0.70700400
   0.06532515  0.93157996  0.67866090
   0.43442841  0.34845195  0.87469054
   0.43451880  0.43173681  0.17736154
   0.84785667  0.03774064  0.26258152
   0.84774901  0.74231891  0.79138212
   0.65203531  0.53771305  0.76111998
   0.65214535  0.24248720  0.29091569
   0.15212102  0.74249634  0.29069024
   0.34789874  0.53791047  0.26057009
   0.15206423  0.03759155  0.76267480
   0.34774075  0.24233437  0.79118130
   0.81928021  0.98917971  0.62489479
   0.87384628  0.08545306  0.89580588
   0.87350172  0.69454626  0.15843090
   0.62622551  0.58547709  0.39411519
   0.62623343  0.19477725  0.65779462
   0.18069661  0.79120727  0.92857107
   0.68059557  0.48902402  0.12331042
   0.68087457  0.29112308  0.92891629
   0.31936432  0.48926380  0.62286302
   0.12629086  0.69467741  0.65750002
   0.12609591  0.08529087  0.39581258
   0.37357753  0.19467228  0.15825324
   0.81914993  0.79098743  0.42914442
   0.18063264  0.98900462  0.12501796
   0.31896627  0.29095558  0.42912284
   0.37369010  0.58564225  0.89359474
 
 position of ions in cartesian coordinates  (Angst):
  20.33065172 25.27085716  5.23881130
  21.47057150 25.98908551  7.02383865
  20.33052944 22.08574850  9.50007379
  14.00302941 12.65429480  5.96255620
  12.86529334  7.88830368  2.32304790
   1.41866069 20.93551866  4.65671109
  12.86456658 13.37630269  7.74700237
  14.00393873  8.61010942  4.10731539
  10.02487158 12.94660498  4.68635420
   2.55914933 21.65588480  6.44028737
   1.41940431 26.42035801 10.08496916
  10.02291744  8.31827057  5.38409260
  21.47039443 21.36439252  7.71659396
   2.55879817 25.69905369  8.30086034
   8.88357487  9.04000042  7.16786137
   8.88713601 12.22655674  2.90071042
  18.64082413  1.18076187  2.96926835
  19.33439893  2.21573733  0.78537936
  19.32918071 19.04801593  9.29379511
  15.00546567 15.69133572  6.16573573
  15.00680629  5.57522920  3.90436429
   4.25246546 19.65860435  4.04945583
  15.69650507 14.65390003  8.34930404
  15.70143345  6.61122420  1.72167217
   7.19590276 14.22794720  5.28842768
   3.56102177 18.61992750  6.23185659
   3.55705673  2.64256632  3.84623098
   7.88303368  6.00310601  6.96603111
  18.63807061 20.08538525  7.11060601
   4.24983175  1.60757830  6.03059075
   7.18904090  7.03826224  4.78279871
   7.88646681 15.26472277  3.10443044
  17.70149217  2.30653691  3.17815157
  18.41114391  3.34266254  1.05626011
  18.40583705 17.92189658  9.02010640
  15.93016456 16.81661163  6.43789849
  15.93202595  4.45022339  3.63409864
   5.19308224 18.53394074  3.83800454
  16.63728645 15.77822248  8.55934993
  16.64261434  5.48669897  1.51303772
   6.25536799 15.35240074  5.49852657
   4.48583615 17.49508088  5.95883333
   4.48074643  3.76886865  4.11701353
   6.95898169  4.87707880  6.69509046
  17.69785917 18.96041314  6.89933368
   5.18955962  2.73306132  6.23941125
   6.24929640  5.91270282  4.57353500
   6.96239137 16.39064590  3.37699722
  16.90474449  2.33540542  4.31675758
  18.32025874  5.25271342  6.26562294
  18.31346093 16.01129288  3.80968127
  16.02224561 17.86459198  5.52887519
  16.02403426  3.40393512  4.54474815
   5.98896925 19.36964101  8.81796802
  17.43344835 14.94270525  3.57917491
  17.44034982  6.32202976  6.49449870
   5.45944877 15.37951611  6.63773821
   4.57862607 16.44743217  6.86791934
   4.57192154  4.81561260  3.20663123
   6.86645308  2.96838816  1.48694865
  16.90157644 18.93370398  5.76006690
   5.98569660  1.89985409  1.25914373
   5.45187395  5.88477822  3.43524819
   6.86941151 18.30119764  8.58714448
  20.34433608 26.25034416  6.23904269
  20.34322644 21.10511066  8.50047054
  13.99080334 13.63529210  6.96147940
  13.99261233  7.63017771  3.10732261
   2.54696360 20.67686323  5.43932105
   8.89989205 13.20753575  3.89974179
   2.54656467 26.67904705  9.30071335
   8.89616675  8.05912424  6.16877006
  17.61968379  3.35433501  2.23019385
  17.61600074 17.91120017  7.84528547
  16.72039214 16.82685572  7.61256707
  16.72353468  4.43860828  2.46046539
   5.27610082 17.48507370  4.78429226
   6.17236230 16.40118671  4.55192769
   5.27209467  3.78030706  5.29096609
   6.16796905  4.86488610  5.52117257
  22.41955277 23.24705696  4.31029442
   0.46888945 23.67665286  7.37223951
  11.91321898 10.63172141  5.03702973
  10.97395577 10.20068480  1.97580913
   7.48754901  3.00525145  2.38176235
  17.34963089 14.12056386  4.28953940
  17.35813889  7.14468521  5.78435150
  16.98795766  1.51408844  5.02819219
  16.98409155 19.75704010  5.05079262
  15.40118188 17.82880631  4.63389345
   3.95744266 16.48272780  7.76274256
   3.95002167  4.77898901  2.31226671
  18.93430032 16.04675794  4.70477743
   5.53410634  6.70712261  2.72484471
   5.54402111 14.55751957  7.34808602
   5.90513877 20.19230488  8.10809024
   7.49016706 18.26589517  7.69179063
  15.40241130  3.44049964  5.43916475
  18.94212993  5.21623288  5.37123559
   5.90147730  1.07911904  1.97106328
  12.49806168 13.01769767  2.51579678
  10.39052213  7.81366867  4.49648624
   8.21516375 12.95266463  8.17720425
   3.23294549 21.79361666  7.28135824
   1.05275800 26.06139524  4.85392360
   8.20955578  8.31511894  1.88905227
  19.65701085 25.99762903 10.51650932
  21.83776340 20.86048712  6.82863859
   3.23210145 25.56086800  7.45958426
  14.67504587 12.51625147  5.12005970
  12.49859243  7.38359757  1.43512521
  21.83788320 26.49167907  7.91271871
  14.67780144  8.74825701  4.94824044
  10.39101328 13.45038635  5.57496032
   1.05089085 20.43187128  3.76869039
  19.65661847 21.36079137  4.22147708
  21.39192329 24.46296101  5.43097196
  22.09519802 24.90752939  6.51727036
  21.39295355 22.89203293  9.30816097
  12.94101730 11.84804953  6.15640514
  12.23860541  8.96917320  2.82923188
   0.79213589 22.01549501  5.16456267
  12.23861457 12.29461790  7.24218212
  12.94109445  9.41576315  3.91511650
  10.64949057 11.86371859  4.18229411
   1.49573741 22.46122310  6.25002722
   0.79301441 25.33964167  9.57854673
  10.64807644  9.40038025  5.88920269
  22.09627267 22.44566846  8.22268551
   1.49608584 24.89333856  8.49288125
   9.94530997  9.84696646  6.97487846
   9.94756747 11.41843382  3.09564757
  19.40960600  1.21148095  1.78057324
  19.40761141 20.05233934  8.29900559
  14.92706295 14.68740624  7.16108569
  14.92942851  6.57835444  2.90831787
   3.48298352 19.62482944  5.23761522
   7.96468146 14.26060783  4.09968990
   3.48103865  1.63897454  4.84187099
   7.96073614  7.00596635  5.96968558
  18.75611322 26.35002870  8.43034711
  20.00450248  3.00282238  5.87774731
  19.99722940 18.25967082  4.20309447
  14.33631232 15.61704197  5.13782177
  14.33613591  5.65001246  4.93119134
   4.13707984 21.44624309  9.36792957
  15.58095317 12.86663533  3.03116827
  15.58704181  8.39791313  7.03901510
   7.31135306 13.30386672  6.09014232
   2.89156257 18.69358429  7.25955763
   2.88665886  2.56704440  2.81917842
   8.55227902  5.21620298  1.87443111
  18.75300690 21.00968848  6.30913414
   4.13591357 25.91403364  5.37216128
   7.30211616  7.96223571  3.98069101
   8.55503984 16.05228201  8.19573257
 


--------------------------------------------------------------------------------------------------------


 k-point  1 :   0.0000 0.0000 0.0000  plane waves:  118971
 k-point  2 :   0.5000-0.0000 0.0000  plane waves:  118968
 k-point  3 :   0.0000 0.0000 0.2500  plane waves:  118930
 k-point  4 :   0.5000 0.0000 0.2500  plane waves:  118914
 k-point  5 :   0.0000 0.0000 0.5000  plane waves:  118804
 k-point  6 :   0.5000 0.0000 0.5000  plane waves:  118862

 maximum and minimum number of plane-waves per node :     29803    29644

 maximum number of plane-waves:    118971
 maximum index in each direction: 
   IXMAX=   45   IYMAX=   52   IZMAX=   12
   IXMIN=  -46   IYMIN=  -52   IZMIN=  -12


 real space projection operators:
  total allocation   :      12770.07 KBytes
  max/ min on nodes  :       3201.66       3182.10


 parallel 3D FFT for wavefunctions:
    minimum data exchange during FFTs selected (reduces bandwidth)
 parallel 3D FFT for charge:
    minimum data exchange during FFTs selected (reduces bandwidth)


 total amount of memory used by VASP MPI-rank0   142676. kBytes
=======================================================================

   base      :      30000. kBytes
   nonlr-proj:       6508. kBytes
   fftplans  :       9396. kBytes
   grid      :      26255. kBytes
   one-center:       1213. kBytes
   wavefun   :      69304. kBytes
 
     INWAV:  cpu time    0.0002: real time    0.0002
 Broyden mixing: mesh for mixing (old mesh)
   NGX = 91   NGY =105   NGZ = 25
  (NGX  =280   NGY  =320   NGZ  = 80)
  gives a total of 238875 points

 initial charge density was supplied:
 charge density of overlapping atoms calculated
 number of electron     604.0000000 magnetization      -0.0000000
 keeping initial charge density in first step


--------------------------------------------------------------------------------------------------------


 Maximum index for non-local projection operator          583
 Maximum index for augmentation-charges          452 (set IRDMAX)


--------------------------------------------------------------------------------------------------------


 First call to EWALD:  gamma=   0.116
 Maximum number of real-space cells 2x 2x 6
 Maximum number of reciprocal cells 4x 4x 1

    FEWALD:  cpu time    0.0148: real time    0.0152


--------------------------------------- Iteration      1(   1)  ---------------------------------------


    POTLOK:  cpu time    0.3851: real time    0.5028
    SETDIJ:  cpu time    0.0665: real time    0.0673
     EDDAV:  cpu time   30.6956: real time   30.8522
       DOS:  cpu time    0.0061: real time    0.0066
    --------------------------------------------
      LOOP:  cpu time   31.1535: real time   31.4291

 eigenvalue-minimisations  :  9216
 total energy-change (2. order) : 0.5455667E+04  (-0.2754972E+05)
 number of electron     604.0000000 magnetization      -0.0000000
 augmentation part      604.0000000 magnetization      -0.0000000

 Free energy of the ion-electron system (eV)
  ---------------------------------------------------
  alpha Z        PSCENC =       474.08360562
  Ewald energy   TEWEN  =     40810.24909996
  -Hartree energ DENC   =    -64840.98564221
  -exchange      EXHF   =         0.00000000
  -V(xc)+E(xc)   XCENC  =      2116.97676644
  PAW double counting   =     22087.95224925   -22402.63741193
  entropy T*S    EENTRO =        -0.04354686
  eigenvalues    EBANDS =     -1481.73847404
  atomic energy  EATOM  =     28691.81066055
  Solvation  Ediel_sol  =         0.00000000
  ---------------------------------------------------
  free energy    TOTEN  =      5455.66730676 eV

  energy without entropy =     5455.71085362  energy(sigma->0) =     5455.68908019


--------------------------------------------------------------------------------------------------------




--------------------------------------- Iteration      1(   2)  ---------------------------------------


     EDDAV:  cpu time   42.2752: real time   42.3352
       DOS:  cpu time    0.0030: real time    0.0030
    --------------------------------------------
      LOOP:  cpu time   42.2784: real time   42.3385

 eigenvalue-minimisations  : 13056
 total energy-change (2. order) :-0.5780785E+04  (-0.5555731E+04)
 number of electron     604.0000000 magnetization      -0.0000000
 augmentation part      604.0000000 magnetization      -0.0000000

 Free energy of the ion-electron system (eV)
  ---------------------------------------------------
  alpha Z        PSCENC =       474.08360562
  Ewald energy   TEWEN  =     40810.24909996
  -Hartree energ DENC   =    -64840.98564221
  -exchange      EXHF   =         0.00000000
  -V(xc)+E(xc)   XCENC  =      2116.97676644
  PAW double counting   =     22087.95224925   -22402.63741193
  entropy T*S    EENTRO =        -0.00000000
  eigenvalues    EBANDS =     -7262.56658981
  atomic energy  EATOM  =     28691.81066055
  Solvation  Ediel_sol  =         0.00000000
  ---------------------------------------------------
  free energy    TOTEN  =      -325.11726214 eV

  energy without entropy =     -325.11726214  energy(sigma->0) =     -325.11726214


--------------------------------------------------------------------------------------------------------




--------------------------------------- Iteration      1(   3)  ---------------------------------------


     EDDAV:  cpu time   35.0910: real time   35.1700
       DOS:  cpu time    0.0063: real time    0.0063
    --------------------------------------------
      LOOP:  cpu time   35.0971: real time   35.1761

 eigenvalue-minimisations  : 10912
 total energy-change (2. order) :-0.9371880E+03  (-0.9300913E+03)
 number of electron     604.0000000 magnetization      -0.0000000
 augmentation part      604.0000000 magnetization      -0.0000000

 Free energy of the ion-electron system (eV)
  ---------------------------------------------------
  alpha Z        PSCENC =       474.08360562
  Ewald energy   TEWEN  =     40810.24909996
  -Hartree energ DENC   =    -64840.98564221
  -exchange      EXHF   =         0.00000000
  -V(xc)+E(xc)   XCENC  =      2116.97676644
  PAW double counting   =     22087.95224925   -22402.63741193
  entropy T*S    EENTRO =        -0.06283138
  eigenvalues    EBANDS =     -8199.69180187
  atomic energy  EATOM  =     28691.81066055
  Solvation  Ediel_sol  =         0.00000000
  ---------------------------------------------------
  free energy    TOTEN  =     -1262.30530558 eV

  energy without entropy =    -1262.24247421  energy(sigma->0) =    -1262.27388989


--------------------------------------------------------------------------------------------------------




--------------------------------------- Iteration      1(   4)  ---------------------------------------


     EDDAV:  cpu time   39.4240: real time   39.4751
       DOS:  cpu time    0.0060: real time    0.0060
    --------------------------------------------
      LOOP:  cpu time   39.4300: real time   39.4811

 eigenvalue-minimisations  : 12256
 total energy-change (2. order) :-0.3303729E+02  (-0.3279952E+02)
 number of electron     604.0000000 magnetization      -0.0000000
 augmentation part      604.0000000 magnetization      -0.0000000

 Free energy of the ion-electron system (eV)
  ---------------------------------------------------
  alpha Z        PSCENC =       474.08360562
  Ewald energy   TEWEN  =     40810.24909996
  -Hartree energ DENC   =    -64840.98564221
  -exchange      EXHF   =         0.00000000
  -V(xc)+E(xc)   XCENC  =      2116.97676644
  PAW double counting   =     22087.95224925   -22402.63741193
  entropy T*S    EENTRO =        -0.07310639
  eigenvalues    EBANDS =     -8232.71882098
  atomic energy  EATOM  =     28691.81066055
  Solvation  Ediel_sol  =         0.00000000
  ---------------------------------------------------
  free energy    TOTEN  =     -1295.34259971 eV

  energy without entropy =    -1295.26949331  energy(sigma->0) =    -1295.30604651


--------------------------------------------------------------------------------------------------------




--------------------------------------- Iteration      1(   5)  ---------------------------------------


     EDDAV:  cpu time   43.2883: real time   43.3436
       DOS:  cpu time    0.0047: real time    0.0047
    CHARGE:  cpu time    1.4351: real time    1.4396
    MIXING:  cpu time    0.0151: real time    0.0170
    --------------------------------------------
      LOOP:  cpu time   44.7432: real time   44.8049

 eigenvalue-minimisations  : 13664
 total energy-change (2. order) :-0.9919506E+00  (-0.9900928E+00)
 number of electron     604.0000166 magnetization       0.0002732
 augmentation part       37.2796089 magnetization      -0.0064018

 Broyden mixing:
  rms(total) = 0.85013E+01    rms(broyden)= 0.85007E+01
  rms(prec ) = 0.93013E+01
  weight for this iteration     100.00

 Free energy of the ion-electron system (eV)
  ---------------------------------------------------
  alpha Z        PSCENC =       474.08360562
  Ewald energy   TEWEN  =     40810.24909996
  -Hartree energ DENC   =    -64840.98564221
  -exchange      EXHF   =         0.00000000
  -V(xc)+E(xc)   XCENC  =      2116.97676644
  PAW double counting   =     22087.95224925   -22402.63741193
  entropy T*S    EENTRO =        -0.07296704
  eigenvalues    EBANDS =     -8233.71091097
  atomic energy  EATOM  =     28691.81066055
  Solvation  Ediel_sol  =         0.00000000
  ---------------------------------------------------
  free energy    TOTEN  =     -1296.33455034 eV

  energy without entropy =    -1296.26158330  energy(sigma->0) =    -1296.29806682


--------------------------------------------------------------------------------------------------------




--------------------------------------- Iteration      1(   6)  ---------------------------------------


    POTLOK:  cpu time    0.4171: real time    0.4181
    SETDIJ:  cpu time    0.0937: real time    0.0937
     EDDAV:  cpu time   45.6523: real time   45.7050
       DOS:  cpu time    0.0097: real time    0.0098
    CHARGE:  cpu time    1.4213: real time    1.4308
    MIXING:  cpu time    0.0170: real time    0.0208
    --------------------------------------------
      LOOP:  cpu time   47.6112: real time   47.6782

 eigenvalue-minimisations  : 14304
 total energy-change (2. order) :-0.1923190E+03  (-0.2343125E+03)
 number of electron     604.0000185 magnetization       0.0002346
 augmentation part       56.5685681 magnetization       0.0017469

 Broyden mixing:
  rms(total) = 0.21743E+02    rms(broyden)= 0.21742E+02
  rms(prec ) = 0.22097E+02
  weight for this iteration     100.00

 eigenvalues of (default mixing * dielectric matrix)
  average eigenvalue GAMMA=   0.0959
  0.0959

 Free energy of the ion-electron system (eV)
  ---------------------------------------------------
  alpha Z        PSCENC =       474.08360562
  Ewald energy   TEWEN  =     40810.24909996
  -Hartree energ DENC   =    -65133.35921587
  -exchange      EXHF   =         0.00000000
  -V(xc)+E(xc)   XCENC  =      2154.16340219
  PAW double counting   =     32869.75164112   -33097.79569711
  entropy T*S    EENTRO =        -0.11004397
  eigenvalues    EBANDS =     -8257.44705115
  atomic energy  EATOM  =     28691.81066055
  Solvation  Ediel_sol  =         0.00000000
  ---------------------------------------------------
  free energy    TOTEN  =     -1488.65359867 eV

  energy without entropy =    -1488.54355471  energy(sigma->0) =    -1488.59857669


--------------------------------------------------------------------------------------------------------




--------------------------------------- Iteration      1(   7)  ---------------------------------------


    POTLOK:  cpu time    0.3396: real time    0.3397
    SETDIJ:  cpu time    0.0633: real time    0.0633
     EDDAV:  cpu time   33.5922: real time   33.6368
       DOS:  cpu time    0.0050: real time    0.0050
    CHARGE:  cpu time    1.4807: real time    1.4860
    MIXING:  cpu time    0.0078: real time    0.0094
    --------------------------------------------
      LOOP:  cpu time   35.4887: real time   35.5402

 eigenvalue-minimisations  : 10560
 total energy-change (2. order) : 0.9187841E+02  (-0.2014086E+02)
 number of electron     604.0000177 magnetization      -0.0007967
 augmentation part       54.9119906 magnetization       0.0059351

 Broyden mixing:
  rms(total) = 0.13831E+02    rms(broyden)= 0.13831E+02
  rms(prec ) = 0.14317E+02
  weight for this iteration     100.00

 eigenvalues of (default mixing * dielectric matrix)
  average eigenvalue GAMMA=   0.4602
  0.4602  0.4602

 Free energy of the ion-electron system (eV)
  ---------------------------------------------------
  alpha Z        PSCENC =       474.08360562
  Ewald energy   TEWEN  =     40810.24909996
  -Hartree energ DENC   =    -65289.58540472
  -exchange      EXHF   =         0.00000000
  -V(xc)+E(xc)   XCENC  =      2156.22007006
  PAW double counting   =     34384.37168155   -34641.54069832
  entropy T*S    EENTRO =        -0.10983116
  eigenvalues    EBANDS =     -7982.27437193
  atomic energy  EATOM  =     28691.81066055
  Solvation  Ediel_sol  =         0.00000000
  ---------------------------------------------------
  free energy    TOTEN  =     -1396.77518840 eV

  energy without entropy =    -1396.66535723  energy(sigma->0) =    -1396.72027281


--------------------------------------------------------------------------------------------------------




--------------------------------------- Iteration      1(   8)  ---------------------------------------


    POTLOK:  cpu time    0.3195: real time    0.3205
    SETDIJ:  cpu time    0.0633: real time    0.0634
     EDDAV:  cpu time   41.2504: real time   41.3002
       DOS:  cpu time    0.0047: real time    0.0047
    CHARGE:  cpu time    1.4144: real time    1.4202
    MIXING:  cpu time    0.0076: real time    0.0083
    --------------------------------------------
      LOOP:  cpu time   43.0598: real time   43.1172

 eigenvalue-minimisations  : 12896
 total energy-change (2. order) : 0.2363265E+03  (-0.2299608E+02)
 number of electron     604.0000173 magnetization      -0.0003855
 augmentation part       45.8397284 magnetization      -0.0047618

 Broyden mixing:
  rms(total) = 0.30746E+01    rms(broyden)= 0.30744E+01
  rms(prec ) = 0.31383E+01
  weight for this iteration     100.00

[...]
     14.67505     12.51625      5.12006         0.002651      0.001169      0.002922
     12.49859      7.38360      1.43513        -0.000073      0.003302      0.001730
     21.83788     26.49168      7.91272        -0.000786      0.000252     -0.004552
     14.67780      8.74826      4.94824        -0.000224      0.000818      0.000738
     10.39101     13.45039      5.57496         0.001074     -0.000276     -0.000611
      1.05089     20.43187      3.76869         0.000739      0.001037      0.000940
     19.65662     21.36079      4.22148        -0.000216      0.000419     -0.000282
     21.39192     24.46296      5.43097         0.000415      0.002091      0.001879
     22.09520     24.90753      6.51727         0.003411     -0.003351     -0.002272
     21.39295     22.89203      9.30816        -0.001747     -0.001164     -0.000889
     12.94102     11.84805      6.15641         0.001274     -0.002858     -0.002258
     12.23861      8.96917      2.82923        -0.004620     -0.001436     -0.002819
      0.79214     22.01550      5.16456        -0.001867     -0.001062      0.002112
     12.23861     12.29462      7.24218        -0.000261     -0.000890     -0.001813
     12.94109      9.41576      3.91512         0.000821     -0.002523      0.000588
     10.64949     11.86372      4.18229         0.004040     -0.000327      0.001668
      1.49574     22.46122      6.25003         0.003451     -0.002023     -0.002113
      0.79301     25.33964      9.57855        -0.003988     -0.002201     -0.000417
     10.64808      9.40038      5.88920         0.006797      0.000860     -0.000179
     22.09627     22.44567      8.22269         0.001442     -0.000033      0.001984
      1.49609     24.89334      8.49288        -0.004980     -0.003079      0.001396
      9.94531      9.84697      6.97488        -0.003425     -0.004619     -0.001312
      9.94757     11.41843      3.09565        -0.001469     -0.003701     -0.002289
     19.40961      1.21148      1.78057         0.003331      0.001335     -0.002698
     19.40761     20.05234      8.29901         0.000137      0.003228      0.003841
     14.92706     14.68741      7.16109        -0.003010      0.002860     -0.003289
     14.92943      6.57835      2.90832         0.000567     -0.003837      0.001754
      3.48298     19.62483      5.23762         0.001512     -0.001814      0.000814
      7.96468     14.26061      4.09969         0.000442      0.003253     -0.000042
      3.48104      1.63897      4.84187        -0.005971     -0.004162     -0.002605
      7.96074      7.00597      5.96969        -0.002245      0.000692      0.001264
     18.75611     26.35003      8.43035        -0.003128      0.003053      0.000464
     20.00450      3.00282      5.87775        -0.002257      0.004581     -0.001751
     19.99723     18.25967      4.20309        -0.003100     -0.003725     -0.001818
     14.33631     15.61704      5.13782         0.002051      0.000968      0.001924
     14.33614      5.65001      4.93119         0.000613     -0.003190     -0.000401
      4.13708     21.44624      9.36793         0.001267     -0.000543     -0.000453
     15.58095     12.86664      3.03117         0.004011      0.002183      0.003249
     15.58704      8.39791      7.03902         0.001753      0.001821     -0.004621
      7.31135     13.30387      6.09014        -0.002252      0.000196      0.000212
      2.89156     18.69358      7.25956         0.001633     -0.005393     -0.002094
      2.88666      2.56704      2.81918         0.004427      0.002956      0.000693
      8.55228      5.21620      1.87443        -0.000704     -0.003498     -0.000628
     18.75301     21.00969      6.30913        -0.000399      0.001288      0.001059
      4.13591     25.91403      5.37216         0.002314      0.001852      0.001997
      7.30212      7.96224      3.98069        -0.000284      0.003049     -0.000430
      8.55504     16.05228      8.19573        -0.004862      0.004833      0.000632
 -----------------------------------------------------------------------------------
    total drift:                                0.012877     -0.008711      0.062631


--------------------------------------------------------------------------------------------------------



  FREE ENERGIE OF THE ION-ELECTRON SYSTEM (eV)
  ---------------------------------------------------
  free  energy   TOTEN  =     -1179.23051169 eV

  energy  without entropy=    -1179.22074397  energy(sigma->0) =    -1179.22562783
 


--------------------------------------------------------------------------------------------------------


    POTLOK:  cpu time    0.4420: real time    0.4431


--------------------------------------------------------------------------------------------------------




--------------------------------------------------------------------------------------------------------


  
 reached required accuracy - stopping structural energy minimisation
 writing wavefunctions
     LOOP+:  cpu time 1998.9245: real time 2024.6505
    4ORBIT:  cpu time    0.0000: real time    0.0000
 


 total charge     
 
# of ion       s       p       d       tot
------------------------------------------
    1        0.868   1.771   0.000   2.639
    2        0.868   1.775   0.000   2.643
    3        0.868   1.771   0.000   2.639
    4        0.868   1.771   0.000   2.640
    5        0.868   1.775   0.000   2.642
    6        0.868   1.775   0.000   2.642
    7        0.868   1.775   0.000   2.642
    8        0.868   1.771   0.000   2.639
    9        0.868   1.775   0.000   2.642
   10        0.868   1.771   0.000   2.639
   11        0.868   1.775   0.000   2.642
   12        0.868   1.775   0.000   2.642
   13        0.868   1.775   0.000   2.643
   14        0.868   1.772   0.000   2.640
   15        0.868   1.771   0.000   2.639
   16        0.868   1.771   0.000   2.639
   17        0.864   1.718   0.000   2.582
   18        0.864   1.719   0.000   2.583
   19        0.864   1.719   0.000   2.583
   20        0.864   1.719   0.000   2.583
   21        0.864   1.719   0.000   2.583
   22        0.864   1.718   0.000   2.581
   23        0.864   1.718   0.000   2.582
   24        0.864   1.718   0.000   2.582
   25        0.864   1.718   0.000   2.582
   26        0.864   1.719   0.000   2.583
   27        0.864   1.719   0.000   2.583
   28        0.864   1.719   0.000   2.583
   29        0.864   1.718   0.000   2.581
   30        0.864   1.718   0.000   2.582
   31        0.864   1.718   0.000   2.582
   32        0.864   1.719   0.000   2.583
   33        0.867   1.784   0.000   2.651
   34        0.866   1.785   0.000   2.651
   35        0.866   1.785   0.000   2.652
   36        0.866   1.785   0.000   2.651
   37        0.867   1.785   0.000   2.652
   38        0.867   1.784   0.000   2.651
   39        0.867   1.784   0.000   2.651
   40        0.867   1.784   0.000   2.651
   41        0.867   1.784   0.000   2.651
   42        0.866   1.785   0.000   2.652
   43        0.866   1.785   0.000   2.652
   44        0.867   1.785   0.000   2.652
   45        0.867   1.784   0.000   2.651
   46        0.867   1.784   0.000   2.651
   47        0.867   1.784   0.000   2.651
   48        0.866   1.785   0.000   2.651
   49        0.870   1.767   0.000   2.638
   50        0.871   1.767   0.000   2.637
   51        0.871   1.767   0.000   2.638
   52        0.871   1.767   0.000   2.637
   53        0.871   1.767   0.000   2.638
   54        0.870   1.767   0.000   2.637
   55        0.870   1.767   0.000   2.638
   56        0.870   1.767   0.000   2.637
   57        0.870   1.767   0.000   2.638
   58        0.871   1.767   0.000   2.638
   59        0.871   1.767   0.000   2.637
   60        0.871   1.767   0.000   2.638
   61        0.870   1.767   0.000   2.637
   62        0.870   1.767   0.000   2.638
   63        0.870   1.767   0.000   2.637
   64        0.871   1.767   0.000   2.637
   65        0.847   1.795   0.000   2.641
   66        0.847   1.794   0.000   2.641
   67        0.847   1.795   0.000   2.641
   68        0.847   1.795   0.000   2.641
   69        0.847   1.795   0.000   2.641
   70        0.847   1.795   0.000   2.641
   71        0.847   1.795   0.000   2.641
   72        0.847   1.795   0.000   2.641
   73        0.866   1.793   0.000   2.659
   74        0.866   1.793   0.000   2.659
   75        0.866   1.793   0.000   2.659
   76        0.866   1.794   0.000   2.659
   77        0.866   1.793   0.000   2.659
   78        0.866   1.793   0.000   2.659
   79        0.866   1.793   0.000   2.659
   80        0.866   1.794   0.000   2.659
   81        0.413   0.530   7.159   8.102
   82        0.413   0.530   7.159   8.102
   83        0.413   0.530   7.159   8.102
   84        0.413   0.530   7.159   8.102
   85        0.638   0.048   0.000   0.686
   86        0.638   0.048   0.000   0.686
   87        0.638   0.048   0.000   0.686
   88        0.638   0.048   0.000   0.686
   89        0.638   0.048   0.000   0.686
   90        0.638   0.048   0.000   0.686
   91        0.638   0.048   0.000   0.686
   92        0.638   0.048   0.000   0.686
   93        0.638   0.048   0.000   0.686
   94        0.638   0.048   0.000   0.686
   95        0.638   0.048   0.000   0.686
   96        0.638   0.048   0.000   0.686
   97        0.638   0.048   0.000   0.686
   98        0.638   0.048   0.000   0.686
   99        0.638   0.048   0.000   0.686
  100        0.638   0.048   0.000   0.686
  101        0.636   0.049   0.000   0.685
  102        0.635   0.049   0.000   0.685
  103        0.629   0.050   0.000   0.680
  104        0.630   0.050   0.000   0.680
  105        0.635   0.049   0.000   0.685
  106        0.630   0.050   0.000   0.680
  107        0.629   0.050   0.000   0.680
  108        0.636   0.049   0.000   0.685
  109        0.630   0.050   0.000   0.680
  110        0.629   0.050   0.000   0.680
  111        0.635   0.049   0.000   0.685
  112        0.635   0.049   0.000   0.685
  113        0.630   0.050   0.000   0.680
  114        0.636   0.049   0.000   0.685
  115        0.636   0.049   0.000   0.685
  116        0.630   0.050   0.000   0.680
  117        1.237   2.613   0.000   3.850
  118        1.237   2.614   0.000   3.851
  119        1.237   2.613   0.000   3.850
  120        1.237   2.614   0.000   3.851
  121        1.237   2.614   0.000   3.851
  122        1.237   2.614   0.000   3.851
  123        1.237   2.614   0.000   3.852
  124        1.237   2.613   0.000   3.850
  125        1.237   2.614   0.000   3.851
  126        1.237   2.613   0.000   3.850
  127        1.237   2.614   0.000   3.851
  128        1.237   2.614   0.000   3.851
  129        1.237   2.614   0.000   3.851
  130        1.237   2.613   0.000   3.850
  131        1.237   2.613   0.000   3.850
  132        1.237   2.614   0.000   3.850
  133        1.211   2.728   0.000   3.940
  134        1.211   2.728   0.000   3.939
  135        1.211   2.728   0.000   3.940
  136        1.211   2.728   0.000   3.940
  137        1.211   2.728   0.000   3.940
  138        1.211   2.728   0.000   3.939
  139        1.212   2.728   0.000   3.940
  140        1.211   2.728   0.000   3.940
  141        1.585   3.540   0.000   5.125
  142        1.586   3.535   0.000   5.121
  143        1.586   3.535   0.000   5.121
  144        1.586   3.535   0.000   5.121
  145        1.586   3.535   0.000   5.121
  146        1.585   3.540   0.000   5.125
  147        1.585   3.540   0.000   5.125
  148        1.585   3.540   0.000   5.125
  149        1.585   3.540   0.000   5.125
  150        1.586   3.535   0.000   5.121
  151        1.586   3.535   0.000   5.121
  152        1.586   3.535   0.000   5.121
  153        1.585   3.540   0.000   5.125
  154        1.585   3.540   0.000   5.125
  155        1.585   3.540   0.000   5.125
  156        1.586   3.535   0.000   5.121
--------------------------------------------------
tot        146.031 265.324  28.637 439.992
 


 magnetization (x)
 
# of ion       s       p       d       tot
------------------------------------------
    1        0.003   0.013   0.000   0.016
    2        0.003   0.015   0.000   0.017
    3        0.003   0.013   0.000   0.016
    4       -0.003  -0.013   0.000  -0.016
    5       -0.003  -0.015   0.000  -0.017
    6        0.003   0.015   0.000   0.017
    7       -0.003  -0.015   0.000  -0.017
    8       -0.003  -0.013   0.000  -0.016
    9       -0.003  -0.015   0.000  -0.017
   10        0.003   0.013   0.000   0.016
   11        0.003   0.015   0.000   0.017
   12       -0.003  -0.015   0.000  -0.017
   13        0.003   0.015   0.000   0.017
   14        0.003   0.013   0.000   0.016
   15       -0.003  -0.013   0.000  -0.016
   16       -0.003  -0.013   0.000  -0.016
   17        0.000   0.001   0.000   0.001
   18        0.000   0.001   0.000   0.001
   19        0.000   0.001   0.000   0.001
   20       -0.000  -0.001   0.000  -0.001
   21       -0.000  -0.001   0.000  -0.001
   22        0.000   0.001   0.000   0.001
   23       -0.000  -0.001   0.000  -0.001
   24       -0.000  -0.001   0.000  -0.001
   25       -0.000  -0.001   0.000  -0.001
   26        0.000   0.001   0.000   0.001
   27        0.000   0.001   0.000   0.001
   28       -0.000  -0.001   0.000  -0.001
   29        0.000   0.001   0.000   0.001
   30        0.000   0.001   0.000   0.001
   31       -0.000  -0.001   0.000  -0.001
   32       -0.000  -0.001   0.000  -0.001
   33        0.000  -0.000   0.000  -0.000
   34        0.000  -0.000   0.000  -0.000
   35        0.000  -0.000   0.000  -0.000
   36       -0.000   0.000   0.000   0.000
   37       -0.000   0.000   0.000   0.000
   38        0.000  -0.000   0.000  -0.000
   39       -0.000   0.000   0.000   0.000
   40       -0.000   0.000   0.000   0.000
   41       -0.000   0.000   0.000   0.000
   42        0.000  -0.000   0.000  -0.000
   43        0.000  -0.000   0.000  -0.000
   44       -0.000   0.000   0.000   0.000
   45        0.000  -0.000   0.000  -0.000
   46        0.000  -0.000   0.000  -0.000
   47       -0.000   0.000   0.000   0.000
   48       -0.000   0.000   0.000   0.000
   49        0.000   0.000   0.000   0.000
   50        0.000   0.000   0.000   0.000
   51        0.000   0.000   0.000   0.000
   52       -0.000  -0.000   0.000  -0.000
   53       -0.000  -0.000   0.000  -0.000
   54        0.000   0.000   0.000   0.000
   55       -0.000  -0.000   0.000  -0.000
   56       -0.000  -0.000   0.000  -0.000
   57       -0.000  -0.000   0.000  -0.000
   58        0.000   0.000   0.000   0.000
   59        0.000   0.000   0.000   0.000
   60       -0.000  -0.000   0.000  -0.000
   61        0.000   0.000   0.000   0.000
   62        0.000   0.000   0.000   0.000
   63       -0.000  -0.000   0.000  -0.000
   64       -0.000  -0.000   0.000  -0.000
   65        0.002   0.009   0.000   0.010
   66        0.002   0.009   0.000   0.010
   67       -0.002  -0.009   0.000  -0.010
   68       -0.002  -0.009   0.000  -0.010
   69        0.002   0.009   0.000   0.010
   70       -0.002  -0.009   0.000  -0.010
   71        0.002   0.009   0.000   0.010
   72       -0.002  -0.009   0.000  -0.010
   73        0.000   0.000   0.000   0.000
   74        0.000   0.000   0.000   0.000
   75       -0.000  -0.000   0.000  -0.000
   76       -0.000  -0.000   0.000  -0.000
   77        0.000   0.000   0.000   0.000
   78       -0.000  -0.000   0.000  -0.000
   79        0.000   0.000   0.000   0.000
   80       -0.000  -0.000   0.000  -0.000
   81        0.011   0.086   2.343   2.440
   82        0.011   0.086   2.343   2.440
   83       -0.011  -0.086  -2.343  -2.440
   84       -0.011  -0.086  -2.343  -2.440
   85        0.000  -0.000   0.000   0.000
   86        0.000  -0.000   0.000   0.000
   87        0.000  -0.000   0.000   0.000
   88       -0.000   0.000   0.000  -0.000
   89       -0.000   0.000   0.000  -0.000
   90        0.000  -0.000   0.000   0.000
   91       -0.000   0.000   0.000  -0.000
   92       -0.000   0.000   0.000  -0.000
   93       -0.000   0.000   0.000  -0.000
   94        0.000  -0.000   0.000   0.000
   95        0.000  -0.000   0.000   0.000
   96       -0.000   0.000   0.000  -0.000
   97        0.000  -0.000   0.000   0.000
   98        0.000  -0.000   0.000   0.000
   99       -0.000   0.000   0.000  -0.000
  100       -0.000   0.000   0.000  -0.000
  101       -0.000  -0.000   0.000  -0.001
  102       -0.000  -0.000   0.000  -0.001
  103       -0.001  -0.000   0.000  -0.001
  104        0.001   0.000   0.000   0.001
  105        0.000   0.000   0.000   0.001
  106       -0.001  -0.000   0.000  -0.001
  107        0.001   0.000   0.000   0.001
  108        0.000   0.000   0.000   0.001
  109        0.001   0.000   0.000   0.001
  110       -0.001  -0.000   0.000  -0.001
  111       -0.000  -0.000   0.000  -0.001
  112        0.000   0.000   0.000   0.001
  113       -0.001  -0.000   0.000  -0.001
  114       -0.000  -0.000   0.000  -0.001
  115        0.000   0.000   0.000   0.001
  116        0.001   0.000   0.000   0.001
  117        0.013   0.046   0.000   0.059
  118        0.016   0.050   0.000   0.065
  119        0.013   0.046   0.000   0.059
  120       -0.013  -0.046   0.000  -0.059
  121       -0.016  -0.049   0.000  -0.065
  122        0.016   0.050   0.000   0.065
  123       -0.016  -0.049   0.000  -0.065
  124       -0.013  -0.046   0.000  -0.059
  125       -0.016  -0.050   0.000  -0.065
  126        0.013   0.046   0.000   0.059
  127        0.016   0.049   0.000   0.065
  128       -0.016  -0.049   0.000  -0.065
  129        0.016   0.049   0.000   0.065
  130        0.013   0.046   0.000   0.059
  131       -0.013  -0.046   0.000  -0.059
  132       -0.013  -0.046   0.000  -0.059
  133        0.000   0.001   0.000   0.001
  134        0.000   0.001   0.000   0.001
  135       -0.000  -0.001   0.000  -0.001
  136       -0.000  -0.001   0.000  -0.001
  137        0.000   0.001   0.000   0.001
  138       -0.000  -0.001   0.000  -0.001
  139        0.000   0.001   0.000   0.001
  140       -0.000  -0.001   0.000  -0.001
  141        0.000   0.001   0.000   0.001
  142        0.000   0.001   0.000   0.001
  143        0.000   0.001   0.000   0.001
  144       -0.000  -0.001   0.000  -0.001
  145       -0.000  -0.001   0.000  -0.001
  146        0.000   0.001   0.000   0.001
  147       -0.000  -0.001   0.000  -0.001
  148       -0.000  -0.001   0.000  -0.001
  149       -0.000  -0.001   0.000  -0.001
  150        0.000   0.001   0.000   0.001
  151        0.000   0.001   0.000   0.001
  152       -0.000  -0.001   0.000  -0.001
  153        0.000   0.001   0.000   0.001
  154        0.000   0.001   0.000   0.001
  155       -0.000  -0.001   0.000  -0.001
  156       -0.000  -0.001   0.000  -0.001
--------------------------------------------------
tot          0.000  -0.000   0.000   0.000
 

 total amount of memory used by VASP MPI-rank0   142676. kBytes
=======================================================================

   base      :      30000. kBytes
   nonlr-proj:       6508. kBytes
   fftplans  :       9396. kBytes
   grid      :      26255. kBytes
   one-center:       1213. kBytes
   wavefun   :      69304. kBytes
 
  
  
 General timing and accounting informations for this job:
 ========================================================
  
                  Total CPU time used (sec):     2276.905
                            User time (sec):     2122.053
                          System time (sec):      154.852
                         Elapsed time (sec):     2312.413
  
                   Maximum memory used (kb):      969340.
                   Average memory used (kb):           0.
  
                          Minor page faults:       115174
                          Major page faults:           10
                 Voluntary context switches:        52641
