       N       E                     dE             d eps       ncg     rms          rms(c)
DAV:   1     0.461844990625E+04    0.46184E+04   -0.30902E+05 10752   0.158E+03
DAV:   2    -0.696372036414E+03   -0.53148E+04   -0.51168E+04 13024   0.350E+02
DAV:   3    -0.127119584042E+04   -0.57482E+03   -0.56414E+03 12992   0.126E+02
DAV:   4    -0.129585692235E+04   -0.24661E+02   -0.24412E+02 15712   0.325E+01
DAV:   5    -0.129637699067E+04   -0.52007E+00   -0.51827E+00 13888   0.386E+00
DAV:   6    -0.129640817084E+04   -0.31180E-01   -0.31164E-01 16608   0.111E+00
DAV:   7    -0.129640868178E+04   -0.51094E-03   -0.51071E-03 13952   0.106E-01
DAV:   8    -0.129640869997E+04   -0.18197E-04   -0.18196E-04 16448   0.229E-02    0.958E+01
DAV:   9    -0.169344842441E+04   -0.39704E+03   -0.43700E+03 18720   0.918E+01    0.385E+02
DAV:  10    -0.161599967148E+04    0.77449E+02   -0.39138E+02 13440   0.327E+01    0.258E+02
DAV:  11    -0.121037957501E+04    0.40562E+03   -0.78459E+02 15936   0.887E+01    0.933E+01
DAV:  12    -0.118285258471E+04    0.27527E+02   -0.70685E+02 15872   0.865E+01    0.551E+01
DAV:  13    -0.118350096154E+04   -0.64838E+00   -0.63507E+02 14848   0.274E+01    0.622E+01
DAV:  14    -0.118709761092E+04   -0.35966E+01   -0.43140E+02 15904   0.379E+01    0.639E+01
DAV:  15    -0.116476402912E+04    0.22334E+02   -0.17093E+02 15168   0.223E+01    0.375E+01
DAV:  16    -0.116309290556E+04    0.16711E+01   -0.52555E+01 15584   0.159E+01    0.330E+01
DAV:  17    -0.116272544316E+04    0.36746E+00   -0.40112E+01 16160   0.134E+01    0.276E+01
DAV:  18    -0.116389796861E+04   -0.11725E+01   -0.52270E+00 14880   0.524E+00    0.261E+01
DAV:  19    -0.116388167549E+04    0.16293E-01   -0.48577E+00 15552   0.349E+00    0.248E+01
DAV:  20    -0.116491890390E+04   -0.10372E+01   -0.64064E-01 14304   0.259E+00    0.221E+01
DAV:  21    -0.116822388363E+04   -0.33050E+01   -0.14893E+01 14976   0.842E+00    0.139E+01
DAV:  22    -0.116952950167E+04   -0.13056E+01   -0.29528E+00 14784   0.300E+00    0.137E+01
DAV:  23    -0.117127719995E+04   -0.17477E+01   -0.29888E+00 14368   0.400E+00    0.126E+01
DAV:  24    -0.117266754609E+04   -0.13903E+01   -0.78863E+00 15104   0.407E+00    0.131E+01
DAV:  25    -0.117310968502E+04   -0.44214E+00   -0.40589E-01 13568   0.153E+00    0.126E+01
DAV:  26    -0.117295293804E+04    0.15675E+00   -0.11631E+00 12736   0.255E+00    0.117E+01
DAV:  27    -0.117273828208E+04    0.21466E+00   -0.17691E-01 15168   0.153E+00    0.111E+01
DAV:  28    -0.117251662688E+04    0.22166E+00   -0.95524E-01 14752   0.188E+00    0.105E+01
DAV:  29    -0.117252353972E+04   -0.69128E-02   -0.12432E-01 14112   0.945E-01    0.101E+01
DAV:  30    -0.117247653576E+04    0.47004E-01   -0.75668E-02 14816   0.976E-01    0.904E+00
DAV:  31    -0.117240078295E+04    0.75753E-01   -0.20435E-01 15200   0.174E+00    0.781E+00
DAV:  32    -0.117215892377E+04    0.24186E+00   -0.33258E-01 14880   0.178E+00    0.653E+00
DAV:  33    -0.117211831824E+04    0.40606E-01   -0.28742E+00 14912   0.204E+00    0.644E+00
DAV:  34    -0.117196719105E+04    0.15113E+00   -0.16006E-01 13440   0.875E-01    0.553E+00
DAV:  35    -0.117185064838E+04    0.11654E+00   -0.34163E-02 15744   0.889E-01    0.487E+00
DAV:  36    -0.117186003297E+04   -0.93846E-02   -0.65079E-02 15648   0.112E+00    0.414E+00
DAV:  37    -0.117198848448E+04   -0.12845E+00   -0.68060E-02 15424   0.148E+00    0.360E+00
DAV:  38    -0.117201495480E+04   -0.26470E-01   -0.39727E-02 13952   0.461E-01    0.340E+00
DAV:  39    -0.117223960290E+04   -0.22465E+00   -0.28088E-02 14272   0.493E-01    0.288E+00
DAV:  40    -0.117251351222E+04   -0.27391E+00   -0.57938E-02 14016   0.104E+00    0.204E+00
DAV:  41    -0.117265155806E+04   -0.13805E+00   -0.43663E-02 14176   0.573E-01    0.161E+00
DAV:  42    -0.117274125465E+04   -0.89697E-01   -0.21568E-02 13472   0.452E-01    0.134E+00
DAV:  43    -0.117282570362E+04   -0.84449E-01   -0.10441E-01 13856   0.440E-01    0.112E+00
DAV:  44    -0.117283845768E+04   -0.12754E-01   -0.73281E-03 13632   0.202E-01    0.106E+00
DAV:  45    -0.117286183139E+04   -0.23374E-01   -0.24797E-03 14240   0.210E-01    0.933E-01
DAV:  46    -0.117293754261E+04   -0.75711E-01   -0.38688E-02 13600   0.524E-01    0.661E-01
DAV:  47    -0.117296986329E+04   -0.32321E-01   -0.10207E-02 13600   0.213E-01    0.536E-01
DAV:  48    -0.117298011550E+04   -0.10252E-01   -0.18317E-03 14080   0.108E-01    0.377E-01
DAV:  49    -0.117298905159E+04   -0.89361E-02   -0.17155E-03 15200   0.203E-01    0.374E-01
DAV:  50    -0.117299118062E+04   -0.21290E-02   -0.14042E-03 14016   0.103E-01    0.302E-01
DAV:  51    -0.117299246424E+04   -0.12836E-02   -0.11230E-03 14784   0.104E-01    0.181E-01
DAV:  52    -0.117299375831E+04   -0.12941E-02   -0.86322E-04 14336   0.687E-02    0.205E-01
DAV:  53    -0.117299473627E+04   -0.97796E-03   -0.40837E-04 14752   0.699E-02    0.147E-01
DAV:  54    -0.117299440750E+04    0.32876E-03   -0.38981E-04 15200   0.653E-02    0.917E-02
DAV:  55    -0.117299483300E+04   -0.42549E-03   -0.22587E-04 14016   0.312E-02    0.111E-01
DAV:  56    -0.117299505027E+04   -0.21727E-03   -0.63000E-05 15040   0.288E-02    0.743E-02
DAV:  57    -0.117299529780E+04   -0.24753E-03   -0.64979E-05 14112   0.235E-02    0.536E-02
DAV:  58    -0.117299544921E+04   -0.15141E-03   -0.57176E-05 14080   0.211E-02    0.311E-02
DAV:  59    -0.117299549604E+04   -0.46831E-04   -0.42479E-05 14560   0.212E-02    0.432E-02
DAV:  60    -0.117299553573E+04   -0.39686E-04   -0.17559E-05 13760   0.120E-02    0.273E-02
DAV:  61    -0.117299555553E+04   -0.19808E-04   -0.17095E-05 10944   0.719E-03    0.244E-02
DAV:  62    -0.117299556259E+04   -0.70585E-05   -0.25905E-05 10240   0.929E-03    0.183E-02
DAV:  63    -0.117299556247E+04    0.11739E-06   -0.83713E-06  9760   0.645E-03
   1 F= -.11872879E+04 E0= -.11872707E+04  d E =-.118729E+04  mag=     0.0199
