 vasp.5.4.4.18Apr17-6-g9f103f2a35 (build May 22 2020 17:00:04) complex          
  
 executed on           IFC15_impi date 2020.09.30  00:51:35
 running on  128 total cores
 distrk:  each k-point on  128 cores,    1 groups
 distr:  one band on NCORES_PER_BAND=   4 cores,   32 groups


--------------------------------------------------------------------------------------------------------


 INCAR:
 POTCAR:    PAW_PBE C 08Apr2002                   
 POTCAR:    PAW_PBE Fe 06Sep2000                  
 POTCAR:    PAW_PBE H 15Jun2001                   
 POTCAR:    PAW_PBE N 08Apr2002                   
 POTCAR:    PAW_PBE O 08Apr2002                   

 ----------------------------------------------------------------------------- 
|                                                                             |
|           W    W    AA    RRRRR   N    N  II  N    N   GGGG   !!!           |
|           W    W   A  A   R    R  NN   N  II  NN   N  G    G  !!!           |
|           W    W  A    A  R    R  N N  N  II  N N  N  G       !!!           |
|           W WW W  AAAAAA  RRRRR   N  N N  II  N  N N  G  GGG   !            |
|           WW  WW  A    A  R   R   N   NN  II  N   NN  G    G                |
|           W    W  A    A  R    R  N    N  II  N    N   GGGG   !!!           |
|                                                                             |
|      For optimal performance we recommend to set                            |
|        NCORE= 4 - approx SQRT( number of cores)                             |
|      NCORE specifies how many cores store one orbital (NPAR=cpu/NCORE).     |
|      This setting can  greatly improve the performance of VASP for DFT.     |
|      The default,   NCORE=1            might be grossly inefficient         |
|      on modern multi-core architectures or massively parallel machines.     |
|      Do your own testing !!!!                                               |
|      Unfortunately you need to use the default for GW and RPA calculations. |
|      (for HF NCORE is supported but not extensively tested yet)             |
|                                                                             |
 ----------------------------------------------------------------------------- 

 POTCAR:    PAW_PBE C 08Apr2002                   
   VRHFIN =C: s2p2                                                              
   LEXCH  = PE                                                                  
   EATOM  =   147.1560 eV,   10.8157 Ry                                         
                                                                                
   TITEL  = PAW_PBE C 08Apr2002                                                 
   LULTRA =        F    use ultrasoft PP ?                                      
   IUNSCR =        1    unscreen: 0-lin 1-nonlin 2-no                           
   RPACOR =    1.200    partial core radius                                     
   POMASS =   12.011; ZVAL   =    4.000    mass and valenz                      
   RCORE  =    1.500    outmost cutoff radius                                   
   RWIGS  =    1.630; RWIGS  =    0.863    wigner-seitz radius (au A)           
   ENMAX  =  400.000; ENMIN  =  300.000 eV                                      
   ICORE  =        2    local potential                                         
   LCOR   =        T    correct aug charges                                     
   LPAW   =        T    paw PP                                                  
   EAUG   =  644.873                                                            
   DEXC   =    0.000                                                            
   RMAX   =    1.529    core radius for proj-oper                               
   RAUG   =    1.300    factor for augmentation sphere                          
   RDEP   =    1.501    radius for radial grids                                 
   RDEPT  =    1.300    core radius for aug-charge                              
                                                                                
   Atomic configuration                                                         
    4 entries                                                                   
     n  l   j            E        occ.                                          
     1  0  0.50      -273.3789   2.0000                                         
     2  0  0.50       -13.7508   2.0000                                         
     2  1  0.50        -5.2854   2.0000                                         
     3  2  1.50        -5.4423   0.0000                                         
   Description                                                                  
     l       E           TYP  RCUT    TYP  RCUT                                 
     0    -13.7508458     23  1.200                                             
     0     -8.2022199     23  1.200                                             
     1     -5.2854383     23  1.500                                             
     1     34.0145650     23  1.500                                             
     2     -5.4423304      7  1.500                                             
  local pseudopotential read in
  partial core-charges read in
  partial kinetic energy density read in
  atomic valenz-charges read in
  non local Contribution for L=           0  read in
    real space projection operators read in
  non local Contribution for L=           0  read in
    real space projection operators read in
  non local Contribution for L=           1  read in
    real space projection operators read in
  non local Contribution for L=           1  read in
    real space projection operators read in
    PAW grid and wavefunctions read in
 
   number of l-projection  operators is LMAX  =           4
   number of lm-projection operators is LMMAX =           8
 
 POTCAR:    PAW_PBE Fe 06Sep2000                  
   VRHFIN =Fe:  d7 s1                                                           
   LEXCH  = PE                                                                  
   EATOM  =   594.3153 eV,   43.6809 Ry                                         
                                                                                
   TITEL  = PAW_PBE Fe 06Sep2000                                                
   LULTRA =        F    use ultrasoft PP ?                                      
   IUNSCR =        1    unscreen: 0-lin 1-nonlin 2-no                           
   RPACOR =    2.000    partial core radius                                     
   POMASS =   55.847; ZVAL   =    8.000    mass and valenz                      
   RCORE  =    2.300    outmost cutoff radius                                   
   RWIGS  =    2.460; RWIGS  =    1.302    wigner-seitz radius (au A)           
   ENMAX  =  267.882; ENMIN  =  200.911 eV                                      
   RCLOC  =    1.701    cutoff for local pot                                    
   LCOR   =        T    correct aug charges                                     
   LPAW   =        T    paw PP                                                  
   EAUG   =  511.368                                                            
   DEXC   =    0.000                                                            
   RMAX   =    2.356    core radius for proj-oper                               
   RAUG   =    1.300    factor for augmentation sphere                          
   RDEP   =    2.442    radius for radial grids                                 
   RDEPT  =    1.890    core radius for aug-charge                              
                                                                                
   Atomic configuration                                                         
    9 entries                                                                   
     n  l   j            E        occ.                                          
     1  0  0.50     -6993.8440   2.0000                                         
     2  0  0.50      -814.6047   2.0000                                         
     2  1  1.50      -693.3689   6.0000                                         
     3  0  0.50       -89.4732   2.0000                                         
     3  1  1.50       -55.6373   6.0000                                         
     3  2  2.50        -3.8151   7.0000                                         
     4  0  0.50        -4.2551   1.0000                                         
     4  1  1.50        -3.4015   0.0000                                         
     4  3  2.50        -1.3606   0.0000                                         
   Description                                                                  
     l       E           TYP  RCUT    TYP  RCUT                                 
     2     -3.8151135     23  2.300                                             
     2     -5.1756961     23  2.300                                             
     0     -4.2550963     23  2.300                                             
     0      7.2035603     23  2.300                                             
     1     -2.7211652     23  2.300                                             
     1     18.4316424     23  2.300                                             
  local pseudopotential read in
  partial core-charges read in
  partial kinetic energy density read in
  atomic valenz-charges read in
  non local Contribution for L=           2  read in
    real space projection operators read in
  non local Contribution for L=           2  read in
    real space projection operators read in
  non local Contribution for L=           0  read in
    real space projection operators read in
  non local Contribution for L=           0  read in
    real space projection operators read in
  non local Contribution for L=           1  read in
    real space projection operators read in
  non local Contribution for L=           1  read in
    real space projection operators read in
    PAW grid and wavefunctions read in
 
   number of l-projection  operators is LMAX  =           6
   number of lm-projection operators is LMMAX =          18
 
 POTCAR:    PAW_PBE H 15Jun2001                   
   VRHFIN =H: ultrasoft test                                                    
   LEXCH  = PE                                                                  
   EATOM  =    12.4884 eV,    0.9179 Ry                                         
                                                                                
   TITEL  = PAW_PBE H 15Jun2001                                                 
   LULTRA =        F    use ultrasoft PP ?                                      
   IUNSCR =        0    unscreen: 0-lin 1-nonlin 2-no                           
   RPACOR =    0.000    partial core radius                                     
   POMASS =    1.000; ZVAL   =    1.000    mass and valenz                      
   RCORE  =    1.100    outmost cutoff radius                                   
   RWIGS  =    0.700; RWIGS  =    0.370    wigner-seitz radius (au A)           
   ENMAX  =  250.000; ENMIN  =  200.000 eV                                      
   RCLOC  =    0.701    cutoff for local pot                                    
   LCOR   =        T    correct aug charges                                     
   LPAW   =        T    paw PP                                                  
   EAUG   =  400.000                                                            
   RMAX   =    1.123    core radius for proj-oper                               
   RAUG   =    1.200    factor for augmentation sphere                          
   RDEP   =    1.112    radius for radial grids                                 
   RDEPT  =    0.926    core radius for aug-charge                              
                                                                                
   Atomic configuration                                                         
    2 entries                                                                   
     n  l   j            E        occ.                                          
     1  0  0.50        -6.4927   1.0000                                         
     2  1  0.50        -3.4015   0.0000                                         
   Description                                                                  
     l       E           TYP  RCUT    TYP  RCUT                                 
     0     -6.4927494     23  1.100                                             
     0      6.8029130     23  1.100                                             
     1     -4.0817478     23  1.100                                             
  local pseudopotential read in
  atomic valenz-charges read in
  non local Contribution for L=           0  read in
    real space projection operators read in
  non local Contribution for L=           0  read in
    real space projection operators read in
  non local Contribution for L=           1  read in
    real space projection operators read in
    PAW grid and wavefunctions read in
 
   number of l-projection  operators is LMAX  =           3
   number of lm-projection operators is LMMAX =           5
 
 POTCAR:    PAW_PBE N 08Apr2002                   
   VRHFIN =N: s2p3                                                              
   LEXCH  = PE                                                                  
   EATOM  =   264.5486 eV,   19.4438 Ry                                         
                                                                                
   TITEL  = PAW_PBE N 08Apr2002                                                 
   LULTRA =        F    use ultrasoft PP ?                                      
   IUNSCR =        1    unscreen: 0-lin 1-nonlin 2-no                           
   RPACOR =    1.200    partial core radius                                     
   POMASS =   14.001; ZVAL   =    5.000    mass and valenz                      
   RCORE  =    1.500    outmost cutoff radius                                   
   RWIGS  =    1.400; RWIGS  =    0.741    wigner-seitz radius (au A)           
   ENMAX  =  400.000; ENMIN  =  300.000 eV                                      
   ICORE  =        2    local potential                                         
   LCOR   =        T    correct aug charges                                     
   LPAW   =        T    paw PP                                                  
   EAUG   =  627.112                                                            
   DEXC   =    0.000                                                            
   RMAX   =    1.529    core radius for proj-oper                               
   RAUG   =    1.300    factor for augmentation sphere                          
   RDEP   =    1.514    radius for radial grids                                 
   RDEPT  =    1.338    core radius for aug-charge                              
                                                                                
   Atomic configuration                                                         
    4 entries                                                                   
     n  l   j            E        occ.                                          
     1  0  0.50      -384.7179   2.0000                                         
     2  0  0.50       -18.5828   2.0000                                         
     2  1  0.50        -7.0898   3.0000                                         
     3  2  1.50        -6.8029   0.0000                                         
   Description                                                                  
     l       E           TYP  RCUT    TYP  RCUT                                 
     0    -18.5828119     23  1.200                                             
     0    -13.5018863     23  1.200                                             
     1     -7.0897853     23  1.500                                             
     1      9.5240782     23  1.500                                             
     2     -6.8029130      7  1.500                                             
  local pseudopotential read in
  partial core-charges read in
  partial kinetic energy density read in
  atomic valenz-charges read in
  non local Contribution for L=           0  read in
    real space projection operators read in
  non local Contribution for L=           0  read in
    real space projection operators read in
  non local Contribution for L=           1  read in
    real space projection operators read in
  non local Contribution for L=           1  read in
    real space projection operators read in
    PAW grid and wavefunctions read in
 
   number of l-projection  operators is LMAX  =           4
   number of lm-projection operators is LMMAX =           8
 
 POTCAR:    PAW_PBE O 08Apr2002                   
   VRHFIN =O: s2p4                                                              
   LEXCH  = PE                                                                  
   EATOM  =   432.3788 eV,   31.7789 Ry                                         
                                                                                
   TITEL  = PAW_PBE O 08Apr2002                                                 
   LULTRA =        F    use ultrasoft PP ?                                      
   IUNSCR =        1    unscreen: 0-lin 1-nonlin 2-no                           
   RPACOR =    1.200    partial core radius                                     
   POMASS =   16.000; ZVAL   =    6.000    mass and valenz                      
   RCORE  =    1.520    outmost cutoff radius                                   
   RWIGS  =    1.550; RWIGS  =    0.820    wigner-seitz radius (au A)           
   ENMAX  =  400.000; ENMIN  =  300.000 eV                                      
   ICORE  =        2    local potential                                         
   LCOR   =        T    correct aug charges                                     
   LPAW   =        T    paw PP                                                  
   EAUG   =  605.392                                                            
   DEXC   =    0.000                                                            
   RMAX   =    1.553    core radius for proj-oper                               
   RAUG   =    1.300    factor for augmentation sphere                          
   RDEP   =    1.550    radius for radial grids                                 
   RDEPT  =    1.329    core radius for aug-charge                              
                                                                                
   Atomic configuration                                                         
    4 entries                                                                   
     n  l   j            E        occ.                                          
     1  0  0.50      -514.6923   2.0000                                         
     2  0  0.50       -23.9615   2.0000                                         
     2  1  0.50        -9.0305   4.0000                                         
     3  2  1.50        -9.5241   0.0000                                         
   Description                                                                  
     l       E           TYP  RCUT    TYP  RCUT                                 
     0    -23.9615318     23  1.200                                             
     0     -9.5240782     23  1.200                                             
     1     -9.0304911     23  1.520                                             
     1      8.1634956     23  1.520                                             
     2     -9.5240782      7  1.500                                             
  local pseudopotential read in
  partial core-charges read in
  partial kinetic energy density read in
  kinetic energy density of atom read in
  atomic valenz-charges read in
  non local Contribution for L=           0  read in
    real space projection operators read in
  non local Contribution for L=           0  read in
    real space projection operators read in
  non local Contribution for L=           1  read in
    real space projection operators read in
  non local Contribution for L=           1  read in
    real space projection operators read in
    PAW grid and wavefunctions read in
 
   number of l-projection  operators is LMAX  =           4
   number of lm-projection operators is LMMAX =           8
 
 Optimization of the real space projectors (new method)

 maximal supplied QI-value         = 25.13
 optimisation between [QCUT,QGAM] = [ 12.32, 24.88] = [ 42.47,173.37] Ry 
 Optimized for a Real-space Cutoff    1.06 Angstroem

   l    n(q)    QCUT    max X(q) W(low)/X(q) W(high)/X(q)  e(spline) 
   0      8    12.315   115.676    0.34E-03    0.18E-03    0.23E-06
   0      8    12.315    87.132    0.34E-03    0.18E-03    0.22E-06
   1      7    12.315     4.429    0.45E-03    0.12E-03    0.18E-06
   1      7    12.315     2.733    0.35E-03    0.97E-04    0.15E-06
 Optimization of the real space projectors (new method)

 maximal supplied QI-value         = 16.25
 optimisation between [QCUT,QGAM] = [ 12.51, 25.03] = [ 43.85,175.40] Ry 
 Optimized for a Real-space Cutoff    1.35 Angstroem

   l    n(q)    QCUT    max X(q) W(low)/X(q) W(high)/X(q)  e(spline) 
   2      9    12.514    80.901    0.12E-03    0.34E-03    0.58E-06
   2      9    12.514    75.754    0.12E-03    0.34E-03    0.59E-06
   0     10    12.514    58.752    0.17E-03    0.81E-04    0.93E-07
   0     10    12.514    30.679    0.15E-03    0.74E-04    0.88E-07
   1     10    12.514    17.977    0.11E-03    0.79E-04    0.24E-06
   1     10    12.514    13.559    0.97E-04    0.61E-04    0.20E-06
 Optimization of the real space projectors (new method)

 maximal supplied QI-value         = 34.20
 optimisation between [QCUT,QGAM] = [ 12.31, 24.97] = [ 42.46,174.58] Ry 
 Optimized for a Real-space Cutoff    1.00 Angstroem

   l    n(q)    QCUT    max X(q) W(low)/X(q) W(high)/X(q)  e(spline) 
   0      7    12.313    19.460    0.14E-03    0.42E-03    0.16E-06
   0      7    12.313    12.209    0.12E-03    0.40E-03    0.16E-06
   1      7    12.313     4.655    0.33E-03    0.59E-03    0.89E-07
 Optimization of the real space projectors (new method)

 maximal supplied QI-value         = 25.13
 optimisation between [QCUT,QGAM] = [ 12.32, 24.88] = [ 42.47,173.37] Ry 
 Optimized for a Real-space Cutoff    1.20 Angstroem

   l    n(q)    QCUT    max X(q) W(low)/X(q) W(high)/X(q)  e(spline) 
   0      9    12.315    79.467    0.14E-03    0.22E-04    0.37E-06
   0      9    12.315    66.151    0.14E-03    0.23E-04    0.36E-06
   1      8    12.315    22.077    0.30E-03    0.54E-03    0.45E-06
   1      8    12.315    15.894    0.30E-03    0.55E-03    0.45E-06
 Optimization of the real space projectors (new method)

 maximal supplied QI-value         = 24.76
 optimisation between [QCUT,QGAM] = [ 12.38, 25.00] = [ 42.90,175.06] Ry 
 Optimized for a Real-space Cutoff    1.13 Angstroem

   l    n(q)    QCUT    max X(q) W(low)/X(q) W(high)/X(q)  e(spline) 
   0      8    12.378    20.381    0.16E-03    0.54E-05    0.27E-06
   0      8    12.378    15.268    0.17E-03    0.61E-05    0.29E-06
   1      8    12.378     5.964    0.38E-03    0.23E-03    0.28E-06
   1      8    12.378     5.382    0.33E-03    0.20E-03    0.25E-06
  PAW_PBE C 08Apr2002                   :
 energy of atom  1       EATOM= -147.1560
 kinetic energy error for atom=    0.0057 (will be added to EATOM!!)
  PAW_PBE Fe 06Sep2000                  :
 energy of atom  2       EATOM= -594.3153
 kinetic energy error for atom=    0.0017 (will be added to EATOM!!)
  PAW_PBE H 15Jun2001                   :
 energy of atom  3       EATOM=  -12.4884
 kinetic energy error for atom=    0.0004 (will be added to EATOM!!)
  PAW_PBE N 08Apr2002                   :
 energy of atom  4       EATOM= -264.5486
 kinetic energy error for atom=    0.0103 (will be added to EATOM!!)
  PAW_PBE O 08Apr2002                   :
 energy of atom  5       EATOM= -432.3788
 kinetic energy error for atom=    0.0168 (will be added to EATOM!!)
 
 
 POSCAR: FeH_middle                              
  positions in direct lattice
  velocities in cartesian coordinates
 exchange correlation table for  LEXCH =        8
   RHO(1)=    0.500       N(1)  =     2000
   RHO(2)=  100.500       N(2)  =     4000
 


--------------------------------------------------------------------------------------------------------


 ion  position               nearest neighbor table
   1  0.789  0.956  0.079- 107 1.09 117 1.35  65 1.40
   2  0.896  0.963  0.413- 112 1.08 118 1.34  65 1.40
   3  0.786  0.807  0.924- 116 1.09 119 1.35  66 1.40
   4  0.710  0.456  0.578- 110 1.09 120 1.35  67 1.40
   5  0.608  0.300  0.090- 111 1.08 121 1.34  68 1.40
   6  0.103  0.799  0.092- 115 1.08 122 1.34  69 1.40
   7  0.604  0.463  0.913- 101 1.08 123 1.34  67 1.40
   8  0.714  0.307  0.425- 113 1.09 124 1.35  68 1.40
   9  0.393  0.462  0.414- 114 1.08 125 1.34  70 1.40
  10  0.210  0.806  0.426- 104 1.09 126 1.35  69 1.40
  11  0.107  0.962  0.915- 105 1.08 127 1.34  71 1.40
  12  0.397  0.299  0.591- 102 1.08 128 1.34  72 1.40
  13  0.893  0.800  0.590- 108 1.08 129 1.34  66 1.40
  14  0.213  0.956  0.581- 109 1.09 130 1.35  71 1.40
  15  0.290  0.306  0.926- 106 1.09 131 1.35  72 1.40
  16  0.286  0.455  0.080- 103 1.09 132 1.35  70 1.40
  17  0.709  0.037  0.410- 141 1.23 133 1.42  33 1.48
  18  0.846  0.054  0.040- 142 1.23 133 1.42  34 1.48
  19  0.840  0.709  0.963- 143 1.23 134 1.42  35 1.48
  20  0.654  0.554  0.540- 144 1.23 135 1.42  36 1.48
  21  0.660  0.209  0.463- 145 1.23 136 1.42  37 1.48
  22  0.291  0.726  0.095- 146 1.23 137 1.42  38 1.48
  23  0.791  0.537  0.909- 147 1.23 135 1.42  39 1.48
  24  0.797  0.226  0.093- 148 1.23 136 1.42  40 1.48
  25  0.204  0.536  0.411- 149 1.23 138 1.42  41 1.48
  26  0.154  0.708  0.464- 150 1.23 137 1.42  42 1.48
  27  0.160  0.053  0.542- 151 1.23 139 1.42  43 1.48
  28  0.346  0.208  0.964- 152 1.23 140 1.42  44 1.48
  29  0.703  0.727  0.593- 153 1.23 134 1.42  45 1.48
  30  0.296  0.036  0.913- 154 1.23 139 1.42  46 1.48
  31  0.209  0.226  0.595- 155 1.23 140 1.42  47 1.48
  32  0.340  0.553  0.041- 156 1.23 138 1.42  48 1.48
  33  0.696  0.081  0.417-  49 1.39  73 1.42  17 1.48
  34  0.831  0.098  0.057-  50 1.39  73 1.42  18 1.48
  35  0.825  0.665  0.947-  51 1.39  74 1.42  19 1.48
  36  0.668  0.598  0.556-  52 1.39  75 1.42  20 1.48
  37  0.675  0.165  0.447-  53 1.39  76 1.42  21 1.48
  38  0.304  0.681  0.088-  54 1.39  77 1.42  22 1.48
  39  0.804  0.581  0.917-  55 1.39  75 1.42  23 1.48
  40  0.811  0.182  0.086-  56 1.39  76 1.42  24 1.48
  41  0.190  0.580  0.418-  57 1.39  78 1.42  25 1.48
  42  0.169  0.664  0.448-  58 1.39  77 1.42  26 1.48
  43  0.174  0.097  0.559-  59 1.39  79 1.42  27 1.48
  44  0.331  0.164  0.948-  60 1.39  80 1.42  28 1.48
  45  0.690  0.682  0.586-  61 1.39  74 1.42  29 1.48
  46  0.310  0.080  0.919-  62 1.39  79 1.41  30 1.48
  47  0.196  0.181  0.588-  63 1.39  80 1.41  31 1.48
  48  0.325  0.597  0.058-  64 1.39  78 1.42  32 1.48
  49  0.624  0.094  0.599-  88 1.09  33 1.39  53 1.40
  50  0.893  0.127  0.891-  99 1.09  34 1.39  56 1.40
  51  0.887  0.635  0.113-  93 1.09  35 1.39  55 1.40
  52  0.607  0.628  0.390-  90 1.09  36 1.39  61 1.40
  53  0.614  0.136  0.613-  98 1.09  37 1.39  49 1.40
  54  0.376  0.668  0.906-  96 1.09  38 1.39  64 1.40
  55  0.876  0.594  0.099-  86 1.09  39 1.39  51 1.40
  56  0.883  0.169  0.905-  87 1.09  40 1.39  50 1.40
  57  0.117  0.593  0.600-  95 1.09  41 1.39  58 1.40
  58  0.107  0.635  0.614-  91 1.09  42 1.39  57 1.40
  59  0.113  0.127  0.392-  92 1.09  43 1.39  63 1.40
  60  0.393  0.135  0.115-  85 1.09  44 1.39  62 1.40
  61  0.617  0.669  0.404-  89 1.09  45 1.39  52 1.40
  62  0.382  0.093  0.101- 100 1.09  46 1.39  60 1.40
  63  0.123  0.169  0.406-  94 1.09  47 1.39  59 1.40
  64  0.387  0.627  0.891-  97 1.09  48 1.39  54 1.40
  65  0.816  0.984  0.235-   2 1.40   1 1.40 133 1.42
  66  0.812  0.779  0.768-  13 1.40   3 1.40 134 1.42
  67  0.683  0.484  0.735-   7 1.40   4 1.40 135 1.42
  68  0.688  0.279  0.267-   5 1.40   8 1.40 136 1.42
  69  0.183  0.778  0.270-   6 1.40  10 1.40 137 1.42
  70  0.312  0.483  0.237-   9 1.40  16 1.40 138 1.42
  71  0.187  0.983  0.738-  11 1.40  14 1.40 139 1.42
  72  0.317  0.278  0.769-  12 1.40  15 1.40 140 1.42
  73  0.758  0.110  0.244-  33 1.42  34 1.42  76 1.43
  74  0.752  0.653  0.759-  45 1.42  35 1.42  75 1.43
  75  0.742  0.610  0.744-  39 1.42  36 1.42  74 1.43
  76  0.748  0.153  0.259-  40 1.42  37 1.42  73 1.43
  77  0.242  0.652  0.260-  38 1.42  42 1.42  78 1.43
  78  0.252  0.609  0.245-  41 1.42  48 1.42  77 1.43
  79  0.247  0.109  0.746-  46 1.41  43 1.42  80 1.43
  80  0.258  0.152  0.761-  47 1.41  44 1.42  79 1.43
  81  0.955  0.881  0.003- 117 2.01 119 2.01 122 2.01 127 2.01  82 2.98  82 2.98
  82  0.044  0.881  0.503- 130 2.01 126 2.01 129 2.01 118 2.01  81 2.98  81 2.98
  83  0.545  0.381  0.502- 120 2.01 124 2.01 128 2.01 125 2.01  84 2.98  84 2.98
  84  0.456  0.381  0.002- 132 2.01 131 2.01 121 2.01 123 2.01  83 2.98  83 2.98
  85  0.448  0.145  0.257-  60 1.09
  86  0.923  0.570  0.230-  55 1.09
  87  0.930  0.193  0.774-  56 1.09
  88  0.577  0.071  0.730-  49 1.09
  89  0.571  0.693  0.273-  61 1.09
  90  0.552  0.617  0.247-  52 1.09
  91  0.052  0.645  0.756-  58 1.09
  92  0.058  0.117  0.249-  59 1.09
  93  0.942  0.646  0.256-  51 1.09
  94  0.077  0.192  0.275-  63 1.09
  95  0.071  0.570  0.731-  57 1.09
  96  0.423  0.692  0.775-  54 1.09
  97  0.442  0.616  0.748-  64 1.09
  98  0.559  0.146  0.756-  53 1.09
  99  0.948  0.117  0.748-  50 1.09
 100  0.429  0.070  0.232-  62 1.09
 101  0.560  0.474  0.065-   7 1.08
 102  0.440  0.289  0.439-  12 1.08
 103  0.230  0.460  0.916-  16 1.09
 104  0.267  0.801  0.590-  10 1.09
 105  0.063  0.973  0.066-  11 1.08
 106  0.234  0.301  0.090-  15 1.09
 107  0.733  0.961  0.915-   1 1.09
 108  0.936  0.789  0.439-  13 1.08
 109  0.270  0.960  0.417-  14 1.09
 110  0.767  0.461  0.414-   4 1.09
 111  0.565  0.289  0.938-   5 1.08
 112  0.940  0.974  0.565-   2 1.08
 113  0.771  0.302  0.588-   8 1.09
 114  0.436  0.473  0.566-   9 1.08
 115  0.060  0.789  0.940-   6 1.08
 116  0.729  0.802  0.088-   3 1.09
 117  0.851  0.920  0.160-   1 1.35 118 1.38  81 2.01
 118  0.917  0.925  0.365-   2 1.34 117 1.38  82 2.01
 119  0.849  0.842  0.844-   3 1.35 129 1.38  81 2.01
 120  0.649  0.421  0.660-   4 1.35 123 1.38  83 2.01
 121  0.586  0.338  0.138-   5 1.34 124 1.38  84 2.01
 122  0.083  0.837  0.140-   6 1.34 126 1.38  81 2.01
 123  0.584  0.425  0.865-   7 1.34 120 1.38  84 2.01
 124  0.651  0.342  0.344-   8 1.35 121 1.38  83 2.01
 125  0.415  0.424  0.366-   9 1.34 132 1.38  83 2.01
 126  0.149  0.842  0.345-  10 1.35 122 1.38  82 2.01
 127  0.085  0.924  0.866-  11 1.34 130 1.38  81 2.01
 128  0.417  0.337  0.639-  12 1.34 131 1.37  83 2.01
 129  0.915  0.838  0.639-  13 1.34 119 1.38  82 2.01
 130  0.151  0.920  0.661-  14 1.35 127 1.38  82 2.01
 131  0.351  0.342  0.845-  15 1.35 128 1.37  84 2.01
 132  0.349  0.420  0.161-  16 1.35 125 1.38  84 2.01
 133  0.784  0.026  0.220-  17 1.42  18 1.42  65 1.42
 134  0.778  0.737  0.782-  19 1.42  29 1.42  66 1.42
 135  0.716  0.526  0.720-  23 1.42  20 1.42  67 1.42
 136  0.722  0.237  0.283-  21 1.42  24 1.42  68 1.42
 137  0.216  0.736  0.284-  22 1.42  26 1.42  69 1.42
 138  0.278  0.525  0.222-  32 1.42  25 1.42  70 1.42
 139  0.221  0.025  0.723-  27 1.42  30 1.42  71 1.42
 140  0.284  0.236  0.784-  31 1.42  28 1.42  72 1.42
 141  0.659  0.010  0.559-  17 1.23
 142  0.909  0.042  0.882-  18 1.23
 143  0.903  0.721  0.122-  19 1.23
 144  0.591  0.542  0.381-  20 1.23
 145  0.597  0.221  0.622-  21 1.23
 146  0.341  0.752  0.945-  22 1.23
 147  0.841  0.510  0.059-  23 1.23
 148  0.846  0.253  0.943-  24 1.23
 149  0.155  0.509  0.562-  25 1.23
 150  0.091  0.720  0.623-  26 1.23
 151  0.096  0.041  0.383-  27 1.23
 152  0.410  0.220  0.123-  28 1.23
 153  0.654  0.753  0.442-  29 1.23
 154  0.344  0.009  0.064-  30 1.23
 155  0.160  0.252  0.444-  31 1.23
 156  0.403  0.541  0.882-  32 1.23
 

IMPORTANT INFORMATION: All symmetrisations will be switched off!
NOSYMM: (Re-)initialisation of all symmetry stuff for point group C_1.

 
 

Automatic generation of k-mesh.
 generate k-points for:    3    1    4
Space group operators:
 irot       det(A)        alpha          n_x          n_y          n_z        tau_x        tau_y        tau_z
    1     1.000000     0.000000     1.000000     0.000000     0.000000     0.000000     0.000000     0.000000
 
 Subroutine IBZKPT returns following result:
 ===========================================
 
 Found      7 irreducible k-points:
 
 Following reciprocal coordinates:
            Coordinates               Weight
  0.000000  0.000000  0.000000      1.000000
  0.333333  0.000000  0.000000      2.000000
  0.000000  0.000000  0.250000      2.000000
  0.333333  0.000000  0.250000      2.000000
 -0.333333  0.000000  0.250000      2.000000
  0.000000  0.000000  0.500000      1.000000
  0.333333  0.000000  0.500000      2.000000
 
 Following cartesian coordinates:
            Coordinates               Weight
  0.000000  0.000000  0.000000      1.000000
  0.032293 -0.000007 -0.000007      2.000000
  0.000028 -0.003542  0.044517      2.000000
  0.032321 -0.003549  0.044510      2.000000
 -0.032265 -0.003536  0.044523      2.000000
  0.000056 -0.007085  0.089033      1.000000
  0.032349 -0.007092  0.089026      2.000000
 


--------------------------------------------------------------------------------------------------------




 Dimension of arrays:
   k-points           NKPTS =      7   k-points in BZ     NKDIM =      7   number of bands    NBANDS=    384
   number of dos      NEDOS =    301   number of ions     NIONS =    156
   non local maximal  LDIM  =      6   non local SUM 2l+1 LMDIM =     18
   total plane-waves  NPLWV = 460800
   max r-space proj   IRMAX =   2516   max aug-charges    IRDMAX=   8800
   dimension x,y,z NGX =    64 NGY =  200 NGZ =   36
   dimension x,y,z NGXF=   128 NGYF=  400 NGZF=   72
   support grid    NGXF=   128 NGYF=  400 NGZF=   72
   ions per type =              80   4  32  24  16
   NGX,Y,Z   is equivalent  to a cutoff of  10.31, 10.07, 10.54 a.u.
   NGXF,Y,Z  is equivalent  to a cutoff of  20.62, 20.14, 21.08 a.u.

 SYSTEM =  flex_MOF                                
 POSCAR =  FeH_middle                              

 Startparameter for this run:
   NWRITE =      2    write-flag & timer
   PREC   = normal    normal or accurate (medium, high low for compatibility)
   ISTART =      0    job   : 0-new  1-cont  2-samecut
   ICHARG =      2    charge: 1-file 2-atom 10-const
   ISPIN  =      2    spin polarized calculation?
   LNONCOLLINEAR =      F non collinear calculations
   LSORBIT =      F    spin-orbit coupling
   INIWAV =      1    electr: 0-lowe 1-rand  2-diag
   LASPH  =      F    aspherical Exc in radial PAW
   METAGGA=      F    non-selfconsistent MetaGGA calc.

 Electronic Relaxation 1
   ENCUT  =  600.0 eV  44.10 Ry    6.64 a.u.  20.62 65.96 11.34*2*pi/ulx,y,z
   ENINI  =  600.0     initial cutoff
   ENAUG  =  644.9 eV  augmentation charge cutoff
   NELM   =     80;   NELMIN=  3; NELMDL= -8     # of ELM steps 
   EDIFF  = 0.1E-05   stopping-criterion for ELM
   LREAL  =      T    real-space projection
   NLSPLINE    = F    spline interpolate recip. space projectors
   LCOMPAT=      F    compatible to vasp.4.4
   GGA_COMPAT  = T    GGA compatible to vasp.4.4-vasp.4.6
   LMAXPAW     = -100 max onsite density
   LMAXMIX     =    2 max onsite mixed and CHGCAR
   VOSKOWN=      0    Vosko Wilk Nusair interpolation
   ROPT   =   -0.00050  -0.00050  -0.00050  -0.00050
   ROPT   =   -0.00050
 Ionic relaxation
   EDIFFG = -.1E-01   stopping-criterion for IOM
   NSW    =   1000    number of steps for IOM
   NBLOCK =      1;   KBLOCK =   1000    inner block; outer block 
   IBRION =      2    ionic relax: 0-MD 1-quasi-New 2-CG
   NFREE  =      1    steps in history (QN), initial steepest desc. (CG)
   ISIF   =      4    stress and relaxation
   IWAVPR =     11    prediction:  0-non 1-charg 2-wave 3-comb
   ISYM   =      0    0-nonsym 1-usesym 2-fastsym
   LCORR  =      T    Harris-Foulkes like correction to forces

   POTIM  = 0.5000    time-step for ionic-motion
   TEIN   =    0.0    initial temperature
   TEBEG  =    0.0;   TEEND  =   0.0 temperature during run
   SMASS  =  -3.00    Nose mass-parameter (am)
   estimated Nose-frequenzy (Omega)   =  0.10E-29 period in steps =****** mass=  -0.243E-26a.u.
   SCALEE = 1.0000    scale energy and forces
   NPACO  =    256;   APACO  = 16.0  distance and # of slots for P.C.
   PSTRESS=    0.0 pullay stress

  Mass of Ions in am
   POMASS =  12.01 55.85  1.00 14.00 16.00
  Ionic Valenz
   ZVAL   =   4.00  8.00  1.00  5.00  6.00
  Atomic Wigner-Seitz radii
   RWIGS  =  -1.00 -1.00 -1.00 -1.00 -1.00
  virtual crystal weights 
   VCA    =   1.00  1.00  1.00  1.00  1.00
   NELECT =     600.0000    total number of electrons
   NUPDOWN=      -1.0000    fix difference up-down

 DOS related values:
   EMIN   =  10.00;   EMAX   =-10.00  energy-range for DOS
   EFERMI =   0.00
   ISMEAR =     0;   SIGMA  =   0.05  broadening in eV -4-tet -1-fermi 0-gaus

 Electronic relaxation 2 (details)
   IALGO  =     38    algorithm
   LDIAG  =      T    sub-space diagonalisation (order eigenvalues)
   LSUBROT=      F    optimize rotation matrix (better conditioning)
   TURBO    =      0    0=normal 1=particle mesh
   IRESTART =      0    0=no restart 2=restart with 2 vectors
   NREBOOT  =      0    no. of reboots
   NMIN     =      0    reboot dimension
   EREF     =   0.00    reference energy to select bands
   IMIX   =      4    mixing-type and parameters
     AMIX     =   0.40;   BMIX     =  1.00
     AMIX_MAG =   1.60;   BMIX_MAG =  1.00
     AMIN     =   0.10
     WC   =   100.;   INIMIX=   1;  MIXPRE=   1;  MAXMIX= -45

 Intra band minimization:
   WEIMIN = 0.0010     energy-eigenvalue tresh-hold
   EBREAK =  0.65E-09  absolut break condition
   DEPER  =   0.30     relativ break condition  

   TIME   =   0.40     timestep for ELM

  volume/ion in A,a.u.               =      12.23        82.55
  Fermi-wavevector in a.u.,A,eV,Ry     =   1.113207  2.103657 16.860753  1.239230
  Thomas-Fermi vector in A             =   2.249790
 
 Write flags
   LWAVE        =      T    write WAVECAR
   LDOWNSAMPLE  =      F    k-point downsampling of WAVECAR
   LCHARG       =      T    write CHGCAR
   LVTOT        =      F    write LOCPOT, total local potential
   LVHAR        =      F    write LOCPOT, Hartree potential only
   LELF         =      F    write electronic localiz. function (ELF)
   LORBIT       =      0    0 simple, 1 ext, 2 COOP (PROOUT), +10 PAW based schemes


 Dipole corrections
   LMONO  =      F    monopole corrections only (constant potential shift)
   LDIPOL =      F    correct potential (dipole corrections)
   IDIPOL =      0    1-x, 2-y, 3-z, 4-all directions 
   EPSILON=  1.0000000 bulk dielectric constant

 Exchange correlation treatment:
   GGA     =    PE    GGA type
   LEXCH   =     8    internal setting for exchange type
   VOSKOWN=      0    Vosko Wilk Nusair interpolation
   LHFCALC =     F    Hartree Fock is set to
   LHFONE  =     F    Hartree Fock one center treatment
   AEXX    =    0.0000 exact exchange contribution

 Linear response parameters
   LEPSILON=     F    determine dielectric tensor
   LRPA    =     F    only Hartree local field effects (RPA)
   LNABLA  =     F    use nabla operator in PAW spheres
   LVEL    =     F    velocity operator in full k-point grid
   LINTERFAST=   F  fast interpolation
   KINTER  =     0    interpolate to denser k-point grid
   CSHIFT  =0.1000    complex shift for real part using Kramers Kronig
   OMEGAMAX=  -1.0    maximum frequency
   DEG_THRESHOLD= 0.2000000E-02 threshold for treating states as degnerate
   RTIME   =   -0.100 relaxation time in fs
  (WPLASMAI=    0.000 imaginary part of plasma frequency in eV, 0.658/RTIME)
   DFIELD  = 0.0000000 0.0000000 0.0000000 field for delta impulse in time
 
 Orbital magnetization related:
   ORBITALMAG=     F  switch on orbital magnetization
   LCHIMAG   =     F  perturbation theory with respect to B field
   DQ        =  0.001000  dq finite difference perturbation B field
   LLRAUG    =     F  two centre corrections for induced B field



--------------------------------------------------------------------------------------------------------


 conjugate gradient relaxation of ions
 charge density and potential will be updated during run
 spin polarized calculation
 Variant of blocked Davidson
 Davidson routine will perform the subspace rotation
 perform sub-space diagonalisation
    after iterative eigenvector-optimisation
 modified Broyden-mixing scheme, WC =      100.0
 initial mixing is a Kerker type mixing with AMIX =  0.4000 and BMIX =      1.0000
 Hartree-type preconditioning will be used
 using additional bands           84
 real space projection scheme for non local part
 use partial core corrections
 calculate Harris-corrections to forces 
   (improved forces if not selfconsistent)
 use gradient corrections 
 use of overlap-Matrix (Vanderbilt PP)
 Gauss-broadening in eV      SIGMA  =   0.05


--------------------------------------------------------------------------------------------------------


  energy-cutoff  :      600.00
  volume of cell :     1908.30
      direct lattice vectors                 reciprocal lattice vectors
    10.322121361  0.003322124 -0.006188084     0.096879305 -0.000019823 -0.000020317
     0.007285247 32.920089455  2.619644193    -0.000011453  0.030590014 -0.002682014
     0.001287456  0.495838299  5.655334618     0.000111311 -0.014169820  0.178066527

  length of vectors
    10.322123751 33.024155985  5.677029762     0.096879309  0.030707366  0.178629461


 
 k-points in units of 2pi/SCALE and weight: read from INCAR                         
   0.00000000  0.00000000  0.00000000       0.083
   0.03229310 -0.00000661 -0.00000677       0.167
   0.00002783 -0.00354246  0.04451663       0.167
   0.03232093 -0.00354906  0.04450986       0.167
  -0.03226527 -0.00353585  0.04452340       0.167
   0.00005566 -0.00708491  0.08903326       0.083
   0.03234876 -0.00709152  0.08902649       0.167
 
 k-points in reciprocal lattice and weights: read from INCAR                         
   0.00000000  0.00000000  0.00000000       0.083
   0.33333333  0.00000000  0.00000000       0.167
   0.00000000  0.00000000  0.25000000       0.167
   0.33333333  0.00000000  0.25000000       0.167
  -0.33333333  0.00000000  0.25000000       0.167
   0.00000000  0.00000000  0.50000000       0.083
   0.33333333  0.00000000  0.50000000       0.167
 
 position of ions in fractional coordinates (direct lattice) 
   0.78922900  0.95633075  0.07897567
   0.89632648  0.96271922  0.41321477
   0.78623124  0.80668603  0.92429271
   0.71032328  0.45640254  0.57815035
   0.60769624  0.30006022  0.08984275
   0.10339502  0.79943741  0.09175091
   0.60371386  0.46270913  0.91291966
   0.71399635  0.30666809  0.42456167
   0.39279184  0.46211673  0.41434885
   0.21044833  0.80576989  0.42614059
   0.10650445  0.96218173  0.91485208
   0.39663261  0.29949609  0.59117225
   0.89296220  0.79996878  0.59032951
   0.21336740  0.95551854  0.58091596
   0.29002895  0.30582073  0.92596244
   0.28647382  0.45547176  0.07970684
   0.70858184  0.03665294  0.40957295
   0.84576508  0.05408005  0.04032692
   0.83980366  0.70891516  0.96303713
   0.65403782  0.55414361  0.53978023
   0.66046119  0.20897584  0.46310882
   0.29115124  0.72550569  0.09505384
   0.79108379  0.53662740  0.90939102
   0.79705048  0.22647767  0.09311083
   0.20351049  0.53563750  0.41144484
   0.15410569  0.70803873  0.46434144
   0.15959943  0.05328364  0.54224749
   0.34609071  0.20810114  0.96440801
   0.70331288  0.72652089  0.59275697
   0.29564339  0.03569005  0.91295592
   0.20910287  0.22560653  0.59478597
   0.33978460  0.55319565  0.04122687
   0.69560652  0.08096391  0.41703681
   0.83146746  0.09803463  0.05688740
   0.82513711  0.66498247  0.94652142
   0.66848263  0.59809728  0.55633198
   0.67505561  0.16503037  0.44676372
   0.30433255  0.68119568  0.08766680
   0.80426364  0.58093282  0.91677444
   0.81071964  0.18214144  0.08638608
   0.18961078  0.57996921  0.41816096
   0.16850124  0.66408378  0.44771177
   0.17431072  0.09722100  0.55866436
   0.33140904  0.16413987  0.94820661
   0.68952188  0.68219540  0.58592087
   0.30977095  0.08001957  0.91935402
   0.19554370  0.18129069  0.58798302
   0.32515432  0.59713601  0.05776434
   0.62375579  0.09377883  0.59893906
   0.89324168  0.12749456  0.89071299
   0.88669972  0.63548281  0.11302510
   0.60688855  0.62760831  0.38993911
   0.61356373  0.13556840  0.61337212
   0.37626575  0.66840458  0.90584182
   0.87633118  0.59369921  0.09858917
   0.88288292  0.16929946  0.90498382
   0.11733166  0.59278335  0.59951060
   0.10679330  0.63458358  0.61379658
   0.11280113  0.12672363  0.39211961
   0.39293902  0.13461652  0.11465445
   0.61738662  0.66940417  0.40427055
   0.38209927  0.09281110  0.10077164
   0.12336554  0.16851373  0.40640145
   0.38660982  0.62661884  0.89127012
   0.81648990  0.98381175  0.23529835
   0.81224817  0.77916836  0.76754888
   0.68319989  0.48384859  0.73478121
   0.68816609  0.27919629  0.26747421
   0.18322684  0.77831941  0.26958530
   0.31227764  0.48295995  0.23671372
   0.18714894  0.98302109  0.73768207
   0.31708967  0.27838285  0.76926875
   0.75833847  0.11024704  0.24423688
   0.75202293  0.65284455  0.75893384
   0.74161213  0.61025661  0.74388538
   0.74808675  0.15284195  0.25927756
   0.24168737  0.65188959  0.26040775
   0.25210710  0.60929734  0.24531420
   0.24745272  0.10937110  0.74618461
   0.25808152  0.15196722  0.76098702
   0.95527482  0.88112383  0.00253352
   0.04448907  0.88100929  0.50281523
   0.54468024  0.38113727  0.50206636
   0.45585057  0.38103039  0.00228677
   0.44825004  0.14476581  0.25731289
   0.92302130  0.57040286  0.22977811
   0.92957542  0.19255045  0.77366076
   0.57709507  0.07050928  0.73015054
   0.57086454  0.69269608  0.27276983
   0.55183446  0.61745353  0.24697650
   0.05154590  0.64475094  0.75646552
   0.05767093  0.11655755  0.24928300
   0.94177449  0.64565130  0.25590886
   0.07674331  0.19180319  0.27508488
   0.07071406  0.56951730  0.73081599
   0.42287101  0.69169010  0.77463427
   0.44157743  0.61644776  0.74828762
   0.55864741  0.14577258  0.75631351
   0.94836016  0.11729356  0.74799768
   0.42855672  0.06952495  0.23238146
   0.56034773  0.47359750  0.06478415
   0.43996453  0.28861772  0.43924464
   0.22994750  0.45989573  0.91586359
   0.26710321  0.80117368  0.58983472
   0.06334673  0.97324716  0.06631433
   0.23361906  0.30123469  0.08985048
   0.73253252  0.96088762  0.91533952
   0.93605582  0.78888113  0.43886207
   0.27008894  0.95994019  0.41740842
   0.76675838  0.46098685  0.41427822
   0.56486986  0.28905851  0.93784088
   0.93992422  0.97367774  0.56465751
   0.77055568  0.30222300  0.58835626
   0.43568811  0.47316163  0.56614802
   0.05981279  0.78852209  0.94013299
   0.72947987  0.80228866  0.08777055
   0.85065425  0.92049124  0.16040677
   0.91657327  0.92469940  0.36546505
   0.84911291  0.84226424  0.84368129
   0.64917569  0.42054611  0.65963719
   0.58578235  0.33793824  0.13842553
   0.08314531  0.83744072  0.13975076
   0.58352396  0.42470775  0.86497299
   0.65120795  0.34228087  0.34378355
   0.41474833  0.42424172  0.36585358
   0.14902471  0.84161188  0.34490277
   0.08484741  0.92428811  0.86635106
   0.41692873  0.33748811  0.63923211
   0.91479784  0.83785696  0.63877773
   0.15059453  0.91991313  0.66145351
   0.35130783  0.34165833  0.84457834
   0.34931432  0.41987162  0.16055484
   0.78354865  0.02596542  0.22032237
   0.77818853  0.73711258  0.78249358
   0.71611655  0.52598842  0.71996701
   0.72215356  0.23712325  0.28259948
   0.21621728  0.73617392  0.28436202
   0.27820185  0.52502127  0.22166012
   0.22112713  0.02508064  0.72285382
   0.28407161  0.23625144  0.78414645
   0.65875507  0.01001301  0.55924075
   0.90903676  0.04198107  0.88184238
   0.90308223  0.72091430  0.12185551
   0.59072774  0.54209367  0.38116511
   0.59718799  0.22102459  0.62174105
   0.34081821  0.75215535  0.94524966
   0.84077135  0.50995304  0.05924823
   0.84607158  0.25315614  0.94263853
   0.15476751  0.50895064  0.56219626
   0.09082520  0.72010297  0.62290891
   0.09635025  0.04129011  0.38339148
   0.40952378  0.22015317  0.12285707
   0.65441663  0.75324065  0.44220408
   0.34411897  0.00899819  0.06419640
   0.15971220  0.25226397  0.44449073
   0.40305013  0.54117725  0.88248598
 
 position of ions in cartesian coordinates  (Angst):
   8.15358632 31.52427486  2.94699629
   9.25953635 31.90066812  4.85330303
   8.12264121 27.01708790  7.33554967
   7.33611245 15.31384144  4.46085040
   6.27501602  9.92457551  1.29038137
   1.07319820 26.36338828  2.61248388
   6.23615398 15.68709224  6.37126362
   7.37273775 10.30842692  3.19998130
   4.05834516 15.41967898  3.55143219
   2.17869208 26.73801284  4.51949578
   1.10753941 32.12908126  7.69370935
   4.09703297 10.15388168  4.12539567
   9.22385222 26.63071834  5.42861876
   2.21011329 31.74450518  5.78707241
   2.99713413 10.52773702  6.03597423
   2.96043836 15.03464443  1.64217006
   7.31486204  1.41205414  2.40790498
   8.73053567  1.80312550  0.36449904
   8.67495982 23.81785120  7.29820592
   6.75578975 18.51227375  4.50024965
   6.81947924  7.11132470  3.16239074
   3.01070631 23.93181068  2.43632636
   8.17074318 18.11936085  6.54378804
   8.22902157  7.50448107  1.11493158
   2.10509197 17.83792045  3.72877855
   1.59645372 23.53944852  4.47986217
   1.64849103  2.02349942  3.20518753
   3.57514805  7.33004828  5.99705932
   7.26573690 24.21338084  5.25111311
   3.05310232  1.62858044  5.25473701
   2.16079455  7.72259936  3.95342858
   3.51138107 18.23282110  1.68022491
   7.18126164  2.87443282  2.56627487
   8.58329543  3.25827806  0.57338795
   8.52322857 22.36334514  7.08980680
   6.90523234 19.96748733  4.70890892
   6.96978346  5.65657980  2.95474191
   3.14643306 22.46950237  2.27839214
   8.30711940 19.58160416  6.70152666
   8.36978465  6.04163937  0.96067114
   1.96194911 19.30060852  3.88297979
   1.74470472 22.08424988  4.27058040
   1.80068394  3.47811013  3.41303966
   3.42326094  5.87475730  5.79036294
   7.12305285 22.75074624  5.09642100
   3.19925988  3.09113137  5.40696053
   2.02050353  6.26029977  3.79894777
   3.36070701 19.68749297  1.88894849
   6.43993725  3.38625664  3.62900810
   9.22222458  4.64174932  5.36574292
   9.15739730 20.97913876  2.29844663
   6.26945156 20.85628473  3.84559115
   6.33505665  4.76909558  3.82016878
   3.88989645 22.45433970  6.87149244
   9.05004898 19.59642677  2.10741262
   9.11562315  6.02501208  5.55602734
   1.21620203 19.81213114  4.94258844
   1.10774674 21.19524680  5.13294737
   1.16577496  4.36655598  2.54884042
   4.05709263  4.48974332  0.99862515
   6.37813690 22.23934889  4.03606554
   3.94488097  3.10658552  0.81066496
   1.27514500  5.74940646  2.73901882
   3.99634598 21.07155865  6.67955680
   8.43537809 32.50655335  3.90287512
   8.39078882 26.03357069  6.37686339
   7.05654312 16.29494127  5.41871709
   7.10571231  9.32607690  2.23979268
   1.89730702 25.75662390  3.56238119
   3.22719097 16.01749403  2.60194613
   1.93988539 32.72753504  6.74584637
   3.27605653  9.54687451  5.07777403
   7.82877932  3.75296365  1.66535665
   7.76820515 21.87050766  5.99759168
   7.66041404 20.46101283  5.80098679
   7.72328950  5.16261569  1.86206368
   2.49981083 21.59018660  3.17891616
   2.60703484 20.18059660  2.98191604
   2.55599444  3.97131540  4.50490579
   2.66603560  5.38095825  4.70013925
   9.86688508 29.01110521  2.31664750
   0.46628728 29.25236747  5.15124393
   5.62567862 12.79782624  3.83442679
   4.70812380 12.54620264  1.00827562
   4.62827722  4.89477808  1.83165159
   9.53198925 18.89471226  2.78801292
   9.59758911  6.72547668  4.87397187
   5.95829907  2.68512559  4.31038376
   5.89793070 22.94076307  3.35368936
   5.70091854 20.45091911  3.01082851
   0.53773407 21.60051446  5.96676471
   0.59645640  3.96088047  1.71476120
   9.72614374 21.38491662  3.13279916
   0.79390526  6.45083064  2.05767828
   0.73500910 19.11116204  5.62450410
   4.37096235 23.15599823  6.19018121
   4.56347021 20.66601215  5.84395816
   5.76846208  5.17571138  4.65562132
   9.79090616  4.23535089  4.53157601
   4.42442012  2.40541488  1.49367359
   5.78751096 15.62485603  1.60356552
   4.54403545  9.72057704  3.23742859
   2.37807556 15.59469280  6.38285532
   2.76366784 26.66805917  5.43284983
   0.66104831 32.07247512  2.92419898
   2.41375453  9.96200030  1.29581659
   7.56946837 32.08880039  7.68920195
   9.66839401 26.19075155  4.54270733
   2.79542158 31.80918122  4.87361471
   7.91846484 15.38369049  3.54575872
   5.83396850  9.98272613  6.05753900
   9.70983236 32.33665954  5.73820005
   7.95672850 10.24349753  4.11430000
   4.50140154 15.85868846  4.43857553
   0.62434987 26.42457030  7.38204383
   7.53573766 26.45735782  2.59356857
   8.78746891 30.38501585  3.31324959
   9.46818768 30.62544345  4.48353874
   8.77186878 28.14856435  6.97247823
   6.70478329 14.17364568  4.82813308
   6.04915666 11.19553994  1.66449577
   0.86451682 27.63819355  2.98361952
   6.02741288 14.41224249  6.00068401
   6.72478374 11.44054128  2.83683540
   4.28464435 14.14885739  3.17782025
   1.54482658 27.87744936  4.15434207
   0.88365429 30.85749902  7.32028605
   4.30687061 11.42847958  4.49659027
   9.44958072 27.90209574  5.80172810
   1.56200837 30.61209688  6.14965414
   3.62981849 11.66736425  5.66922245
   3.60893038 13.90298105  2.00574401
   8.08835705  0.96663111  1.30916821
   8.03893388 24.65638754  6.35142021
   7.39660084 17.67495211  5.44512548
   7.45624806  7.94864127  2.21490444
   2.23755027 24.37662709  3.53533815
   2.87574353 17.39457901  2.62720951
   2.28361443  1.18481001  4.15231423
   2.93495233  8.16717196  5.05174743
   6.80054276  0.60911048  3.18484766
   9.38462891  1.82229182  5.09146401
   9.32713331 23.79598387  2.57208427
   6.10200345 18.03673081  3.57205327
   6.16665764  7.58641633  4.09146404
   3.52466356 25.23084468  7.31397349
   8.68233531 16.81987045  1.66576135
   8.73631145  8.80412978  5.98887976
   1.60196071 17.03397324  4.51171986
   0.94355680 24.01501800  5.40860988
   0.99533335  1.54969445  2.27577630
   4.22891617  7.30973969  1.26898663
   6.76102471 25.01818539  4.46998493
   3.55218599  0.32919547  0.38449477
   1.65097874  8.52547872  3.17359735
   4.16541112 18.25451270  6.40595121
 


--------------------------------------------------------------------------------------------------------


 k-point  1 :   0.0000 0.0000 0.0000  plane waves:   63761
 k-point  2 :   0.3333 0.0000 0.0000  plane waves:   63694
 k-point  3 :   0.0000 0.0000 0.2500  plane waves:   63691
 k-point  4 :   0.3333 0.0000 0.2500  plane waves:   63661
 k-point  5 :  -0.3333 0.0000 0.2500  plane waves:   63663
 k-point  6 :   0.0000 0.0000 0.5000  plane waves:   63648
 k-point  7 :   0.3333 0.0000 0.5000  plane waves:   63648

 maximum and minimum number of plane-waves per node :     15999    15857

 maximum number of plane-waves:     63761
 maximum index in each direction: 
   IXMAX=   20   IYMAX=   65   IZMAX=   11
   IXMIN=  -20   IYMIN=  -65   IZMIN=  -11


 real space projection operators:
  total allocation   :      12385.21 KBytes
  max/ min on nodes  :       3130.47       3072.73


 parallel 3D FFT for wavefunctions:
    minimum data exchange during FFTs selected (reduces bandwidth)
 parallel 3D FFT for charge:
    minimum data exchange during FFTs selected (reduces bandwidth)


 total amount of memory used by VASP MPI-rank0   102430. kBytes
=======================================================================

   base      :      30000. kBytes
   nonlr-proj:      10435. kBytes
   fftplans  :       4608. kBytes
   grid      :      12392. kBytes
   one-center:       1213. kBytes
   wavefun   :      43782. kBytes
 
     INWAV:  cpu time    0.0004: real time    0.0009
 Broyden mixing: mesh for mixing (old mesh)
   NGX = 41   NGY =131   NGZ = 23
  (NGX  =128   NGY  =400   NGZ  = 72)
  gives a total of 123533 points

 initial charge density was supplied:
 charge density of overlapping atoms calculated
 number of electron     600.0000000 magnetization      -0.0000000
 keeping initial charge density in first step


--------------------------------------------------------------------------------------------------------


 Maximum index for non-local projection operator          604
 Maximum index for augmentation-charges          396 (set IRDMAX)


--------------------------------------------------------------------------------------------------------


 First call to EWALD:  gamma=   0.143
 Maximum number of real-space cells 3x 1x 5
 Maximum number of reciprocal cells 2x 6x 2

    FEWALD:  cpu time    0.0148: real time    0.0149


--------------------------------------- Iteration      1(   1)  ---------------------------------------


    POTLOK:  cpu time    0.2043: real time    0.2509
    SETDIJ:  cpu time    0.0649: real time    0.0654
     EDDAV:  cpu time   29.6413: real time   29.7039
       DOS:  cpu time    0.0052: real time    0.0052
    --------------------------------------------
      LOOP:  cpu time   29.9159: real time   30.0255

 eigenvalue-minimisations  : 10752
 total energy-change (2. order) : 0.4618450E+04  (-0.3090224E+05)
 number of electron     600.0000000 magnetization      -0.0000000
 augmentation part      600.0000000 magnetization      -0.0000000

 Free energy of the ion-electron system (eV)
  ---------------------------------------------------
  alpha Z        PSCENC =       928.84128172
  Ewald energy   TEWEN  =     -3480.53624576
  -Hartree energ DENC   =    -22145.52170269
  -exchange      EXHF   =         0.00000000
  -V(xc)+E(xc)   XCENC  =      2068.65204675
  PAW double counting   =     21424.79691592   -21559.01982888
  entropy T*S    EENTRO =        -0.02902956
  eigenvalues    EBANDS =      -434.33776047
  atomic energy  EATOM  =     27815.60422923
  Solvation  Ediel_sol  =         0.00000000
  ---------------------------------------------------
  free energy    TOTEN  =      4618.44990625 eV

  energy without entropy =     4618.47893581  energy(sigma->0) =     4618.46442103


--------------------------------------------------------------------------------------------------------




--------------------------------------- Iteration      1(   2)  ---------------------------------------


     EDDAV:  cpu time   33.8975: real time   33.9404
       DOS:  cpu time    0.0057: real time    0.0057
    --------------------------------------------
      LOOP:  cpu time   33.9032: real time   33.9461

 eigenvalue-minimisations  : 13024
 total energy-change (2. order) :-0.5314822E+04  (-0.5116806E+04)
 number of electron     600.0000000 magnetization      -0.0000000
 augmentation part      600.0000000 magnetization      -0.0000000

 Free energy of the ion-electron system (eV)
  ---------------------------------------------------
  alpha Z        PSCENC =       928.84128172
  Ewald energy   TEWEN  =     -3480.53624576
  -Hartree energ DENC   =    -22145.52170269
  -exchange      EXHF   =         0.00000000
  -V(xc)+E(xc)   XCENC  =      2068.65204675
  PAW double counting   =     21424.79691592   -21559.01982888
  entropy T*S    EENTRO =        -0.01739168
  eigenvalues    EBANDS =     -5749.17134102
  atomic energy  EATOM  =     27815.60422923
  Solvation  Ediel_sol  =         0.00000000
  ---------------------------------------------------
  free energy    TOTEN  =      -696.37203641 eV

  energy without entropy =     -696.35464474  energy(sigma->0) =     -696.36334058


--------------------------------------------------------------------------------------------------------




--------------------------------------- Iteration      1(   3)  ---------------------------------------


     EDDAV:  cpu time   33.4865: real time   33.5674
       DOS:  cpu time    0.0048: real time    0.0048
    --------------------------------------------
      LOOP:  cpu time   33.4913: real time   33.5722

 eigenvalue-minimisations  : 12992
 total energy-change (2. order) :-0.5748238E+03  (-0.5641413E+03)
 number of electron     600.0000000 magnetization      -0.0000000
 augmentation part      600.0000000 magnetization      -0.0000000

 Free energy of the ion-electron system (eV)
  ---------------------------------------------------
  alpha Z        PSCENC =       928.84128172
  Ewald energy   TEWEN  =     -3480.53624576
  -Hartree energ DENC   =    -22145.52170269
  -exchange      EXHF   =         0.00000000
  -V(xc)+E(xc)   XCENC  =      2068.65204675
  PAW double counting   =     21424.79691592   -21559.01982888
  entropy T*S    EENTRO =        -0.06523740
  eigenvalues    EBANDS =     -6323.94729930
  atomic energy  EATOM  =     27815.60422923
  Solvation  Ediel_sol  =         0.00000000
  ---------------------------------------------------
  free energy    TOTEN  =     -1271.19584042 eV

  energy without entropy =    -1271.13060302  energy(sigma->0) =    -1271.16322172


--------------------------------------------------------------------------------------------------------




--------------------------------------- Iteration      1(   4)  ---------------------------------------


     EDDAV:  cpu time   39.2971: real time   39.3795
       DOS:  cpu time    0.0051: real time    0.0051
    --------------------------------------------
      LOOP:  cpu time   39.3023: real time   39.3846

 eigenvalue-minimisations  : 15712
 total energy-change (2. order) :-0.2466108E+02  (-0.2441224E+02)
 number of electron     600.0000000 magnetization      -0.0000000
 augmentation part      600.0000000 magnetization      -0.0000000

 Free energy of the ion-electron system (eV)
  ---------------------------------------------------
  alpha Z        PSCENC =       928.84128172
  Ewald energy   TEWEN  =     -3480.53624576
  -Hartree energ DENC   =    -22145.52170269
  -exchange      EXHF   =         0.00000000
  -V(xc)+E(xc)   XCENC  =      2068.65204675
  PAW double counting   =     21424.79691592   -21559.01982888
  entropy T*S    EENTRO =        -0.06949032
  eigenvalues    EBANDS =     -6348.60412832
  atomic energy  EATOM  =     27815.60422923
  Solvation  Ediel_sol  =         0.00000000
  ---------------------------------------------------
  free energy    TOTEN  =     -1295.85692235 eV

  energy without entropy =    -1295.78743204  energy(sigma->0) =    -1295.82217719


--------------------------------------------------------------------------------------------------------




--------------------------------------- Iteration      1(   5)  ---------------------------------------


     EDDAV:  cpu time   35.7144: real time   35.7652
       DOS:  cpu time    0.0050: real time    0.0050
    --------------------------------------------
      LOOP:  cpu time   35.7195: real time   35.7703

 eigenvalue-minimisations  : 13888
 total energy-change (2. order) :-0.5200683E+00  (-0.5182701E+00)
 number of electron     600.0000000 magnetization      -0.0000000
 augmentation part      600.0000000 magnetization      -0.0000000

 Free energy of the ion-electron system (eV)
  ---------------------------------------------------
  alpha Z        PSCENC =       928.84128172
  Ewald energy   TEWEN  =     -3480.53624576
  -Hartree energ DENC   =    -22145.52170269
  -exchange      EXHF   =         0.00000000
  -V(xc)+E(xc)   XCENC  =      2068.65204675
  PAW double counting   =     21424.79691592   -21559.01982888
  entropy T*S    EENTRO =        -0.06959952
  eigenvalues    EBANDS =     -6349.12408743
  atomic energy  EATOM  =     27815.60422923
  Solvation  Ediel_sol  =         0.00000000
  ---------------------------------------------------
  free energy    TOTEN  =     -1296.37699067 eV

  energy without entropy =    -1296.30739115  energy(sigma->0) =    -1296.34219091


--------------------------------------------------------------------------------------------------------




--------------------------------------- Iteration      1(   6)  ---------------------------------------


     EDDAV:  cpu time   40.9195: real time   41.0054
       DOS:  cpu time    0.0049: real time    0.0049
    --------------------------------------------
      LOOP:  cpu time   40.9243: real time   41.0103

 eigenvalue-minimisations  : 16608
 total energy-change (2. order) :-0.3118017E-01  (-0.3116362E-01)
 number of electron     600.0000000 magnetization      -0.0000000
 augmentation part      600.0000000 magnetization      -0.0000000

 Free energy of the ion-electron system (eV)
  ---------------------------------------------------
  alpha Z        PSCENC =       928.84128172
  Ewald energy   TEWEN  =     -3480.53624576
  -Hartree energ DENC   =    -22145.52170269
  -exchange      EXHF   =         0.00000000
  -V(xc)+E(xc)   XCENC  =      2068.65204675
  PAW double counting   =     21424.79691592   -21559.01982888
  entropy T*S    EENTRO =        -0.06958095
  eigenvalues    EBANDS =     -6349.15528617
  atomic energy  EATOM  =     27815.60422923
  Solvation  Ediel_sol  =         0.00000000
  ---------------------------------------------------
  free energy    TOTEN  =     -1296.40817084 eV

  energy without entropy =    -1296.33858989  energy(sigma->0) =    -1296.37338036


--------------------------------------------------------------------------------------------------------




--------------------------------------- Iteration      1(   7)  ---------------------------------------


     EDDAV:  cpu time   35.6722: real time   35.7473
       DOS:  cpu time    0.0051: real time    0.0051
    --------------------------------------------
      LOOP:  cpu time   35.6773: real time   35.7524

 eigenvalue-minimisations  : 13952
 total energy-change (2. order) :-0.5109377E-03  (-0.5107057E-03)
 number of electron     600.0000000 magnetization      -0.0000000
 augmentation part      600.0000000 magnetization      -0.0000000

 Free energy of the ion-electron system (eV)
  ---------------------------------------------------
  alpha Z        PSCENC =       928.84128172
  Ewald energy   TEWEN  =     -3480.53624576
  -Hartree energ DENC   =    -22145.52170269
  -exchange      EXHF   =         0.00000000
  -V(xc)+E(xc)   XCENC  =      2068.65204675
  PAW double counting   =     21424.79691592   -21559.01982888
  entropy T*S    EENTRO =        -0.06958175
  eigenvalues    EBANDS =     -6349.15579631
  atomic energy  EATOM  =     27815.60422923
  Solvation  Ediel_sol  =         0.00000000
  ---------------------------------------------------
  free energy    TOTEN  =     -1296.40868178 eV

  energy without entropy =    -1296.33910003  energy(sigma->0) =    -1296.37389090


--------------------------------------------------------------------------------------------------------




--------------------------------------- Iteration      1(   8)  ---------------------------------------


     EDDAV:  cpu time   40.8802: real time   40.9724
       DOS:  cpu time    0.0055: real time    0.0056
    CHARGE:  cpu time    0.9239: real time    0.9269
    MIXING:  cpu time    0.0181: real time    0.0198
    --------------------------------------------
      LOOP:  cpu time   41.8278: real time   41.9246

 eigenvalue-minimisations  : 16448
 total energy-change (2. order) :-0.1819749E-04  (-0.1819595E-04)
 number of electron     599.9999981 magnetization      -0.0005215
 augmentation part       32.0633336 magnetization       0.0039548

 Broyden mixing:
  rms(total) = 0.95810E+01    rms(broyden)= 0.95805E+01
  rms(prec ) = 0.10231E+02
  weight for this iteration     100.00

 Free energy of the ion-electron system (eV)
  ---------------------------------------------------
  alpha Z        PSCENC =       928.84128172
  Ewald energy   TEWEN  =     -3480.53624576
  -Hartree energ DENC   =    -22145.52170269
  -exchange      EXHF   =         0.00000000
  -V(xc)+E(xc)   XCENC  =      2068.65204675
  PAW double counting   =     21424.79691592   -21559.01982888
  entropy T*S    EENTRO =        -0.06958170
  eigenvalues    EBANDS =     -6349.15581455
  atomic energy  EATOM  =     27815.60422923
  Solvation  Ediel_sol  =         0.00000000
  ---------------------------------------------------
  free energy    TOTEN  =     -1296.40869997 eV

  energy without entropy =    -1296.33911827  energy(sigma->0) =    -1296.37390912


--------------------------------------------------------------------------------------------------------




--------------------------------------- Iteration      1(   9)  ---------------------------------------


    POTLOK:  cpu time    0.1629: real time    0.1945
    SETDIJ:  cpu time    0.0613: real time    0.0613
     EDDAV:  cpu time   46.1592: real time   46.2236
       DOS:  cpu time    0.0051: real time    0.0052
    CHARGE:  cpu time    0.9178: real time    0.9188
    MIXING:  cpu time    0.0080: real time    0.0085
    --------------------------------------------
      LOOP:  cpu time   47.3142: real time   47.4117

 eigenvalue-minimisations  : 18720
 total energy-change (2. order) :-0.3970397E+03  (-0.4370003E+03)
 number of electron     599.9999915 magnetization       0.0007842
 augmentation part       55.5605433 magnetization      -0.2768071

 Broyden mixing:
  rms(total) = 0.38516E+02    rms(broyden)= 0.38516E+02
  rms(prec ) = 0.38892E+02
  weight for this iteration     100.00

 eigenvalues of (default mixing * dielectric matrix)
  average eigenvalue GAMMA=   0.0607
  0.0607

 Free energy of the ion-electron system (eV)
  ---------------------------------------------------
  alpha Z        PSCENC =       928.84128172
  Ewald energy   TEWEN  =     -3480.53624576
  -Hartree energ DENC   =    -22758.84462921
  -exchange      EXHF   =         0.00000000
  -V(xc)+E(xc)   XCENC  =      2107.37179947
  PAW double counting   =     32198.98848227   -32292.41289588
  entropy T*S    EENTRO =        -0.07997820
  eigenvalues    EBANDS =     -6212.38046806
  atomic energy  EATOM  =     27815.60422923
  Solvation  Ediel_sol  =         0.00000000
  ---------------------------------------------------
  free energy    TOTEN  =     -1693.44842441 eV

  energy without entropy =    -1693.36844622  energy(sigma->0) =    -1693.40843531


--------------------------------------------------------------------------------------------------------




--------------------------------------- Iteration      1(  10)  ---------------------------------------


    POTLOK:  cpu time    0.1612: real time    0.1895
    SETDIJ:  cpu time    0.0609: real time    0.0609
     EDDAV:  cpu time   34.5137: real time   34.5576
       DOS:  cpu time    0.0055: real time    0.0055
    CHARGE:  cpu time    0.9189: real time    0.9200
    MIXING:  cpu time    0.0063: real time    0.0063
    --------------------------------------------
      LOOP:  cpu time   35.6666: real time   35.7399

 eigenvalue-minimisations  : 13440
 total energy-change (2. order) : 0.7744875E+02  (-0.3913796E+02)
 number of electron     599.9999918 magnetization      -0.0144432
 augmentation part       53.5346770 magnetization       0.0081037

 Broyden mixing:
  rms(total) = 0.25848E+02    rms(broyden)= 0.25848E+02
  rms(prec ) = 0.26337E+02
  weight for this iteration     100.00

 eigenvalues of (default mixing * dielectric matrix)
  average eigenvalue GAMMA=   0.2934
  0.2934  0.2934

 Free energy of the ion-electron system (eV)
  ---------------------------------------------------
  alpha Z        PSCENC =       928.84128172
  Ewald energy   TEWEN  =     -3480.53624576
  -Hartree energ DENC   =    -22786.66774557
  -exchange      EXHF   =         0.00000000
  -V(xc)+E(xc)   XCENC  =      2108.99734936
  PAW double counting   =     32999.37798386   -33102.32315517
  entropy T*S    EENTRO =        -0.08813231
  eigenvalues    EBANDS =     -6099.20523684
  atomic energy  EATOM  =     27815.60422923
  Solvation  Ediel_sol  =         0.00000000
  ---------------------------------------------------
  free energy    TOTEN  =     -1615.99967148 eV

  energy without entropy =    -1615.91153917  energy(sigma->0) =    -1615.95560533


--------------------------------------------------------------------------------------------------------




--------------------------------------- Iteration      1(  11)  ---------------------------------------


    POTLOK:  cpu time    0.1561: real time    0.1848
    SETDIJ:  cpu time    0.1284: real time    0.1284
     EDDAV:  cpu time   39.9656: real time   40.0301
       DOS:  cpu time    0.0054: real time    0.0054
    CHARGE:  cpu time    0.9728: real time    0.9741
    MIXING:  cpu time    0.0049: real time    0.0049
    --------------------------------------------
      LOOP:  cpu time   41.2331: real time   41.3277

 eigenvalue-minimisations  : 15936
 total energy-change (2. order) : 0.4056201E+03  (-0.7845885E+02)
 number of electron     599.9999935 magnetization      -0.0129515
 augmentation part       51.8074291 magnetization      -0.0651589

 Broyden mixing:
  rms(total) = 0.93257E+01    rms(broyden)= 0.93254E+01
  rms(prec ) = 0.10152E+02
  weight for this iteration     100.00

 eigenvalues of (default mixing * dielectric matrix)
  average eigenvalue GAMMA=   0.3643
  0.4191  0.4191  0.2546

 Free energy of the ion-electron system (eV)
  ---------------------------------------------------
  alpha Z        PSCENC =       928.84128172
  Ewald energy   TEWEN  =     -3480.53624576
  -Hartree energ DENC   =    -22865.61381715
  -exchange      EXHF   =         0.00000000
  -V(xc)+E(xc)   XCENC  =      2114.16346869
  PAW double counting   =     37111.05541021   -37258.44825887
  entropy T*S    EENTRO =        -0.05943150
  eigenvalues    EBANDS =     -5575.38621157
  atomic energy  EATOM  =     27815.60422923
  Solvation  Ediel_sol  =         0.00000000
  ---------------------------------------------------
  free energy    TOTEN  =     -1210.37957501 eV

  energy without entropy =    -1210.32014351  energy(sigma->0) =    -1210.34985926


--------------------------------------------------------------------------------------------------------




--------------------------------------- Iteration      1(  12)  ---------------------------------------


    POTLOK:  cpu time    0.1556: real time    0.1852
    SETDIJ:  cpu time    0.0609: real time    0.0609
     EDDAV:  cpu time   39.6693: real time   39.7388
       DOS:  cpu time    0.0051: real time    0.0051
    CHARGE:  cpu time    0.9745: real time    0.9755
    MIXING:  cpu time    0.0049: real time    0.0049
    --------------------------------------------
      LOOP:  cpu time   40.8705: real time   40.9704

 eigenvalue-minimisations  : 15872
 total energy-change (2. order) : 0.2752699E+02  (-0.7068457E+02)
 number of electron     599.9999976 magnetization      -0.0357754
 augmentation part       34.0320239 magnetization       0.0518231

 Broyden mixing:
  rms(total) = 0.55126E+01    rms(broyden)= 0.55121E+01
  rms(prec ) = 0.62723E+01
  weight for this iteration     100.00

 eigenvalues of (default mixing * dielectric matrix)
  average eigenvalue GAMMA=   0.4220
  0.8166  0.3289  0.3289  0.2133

 Free energy of the ion-electron system (eV)
  ---------------------------------------------------
  alpha Z        PSCENC =       928.84128172
  Ewald energy   TEWEN  =     -3480.53624576
  -Hartree energ DENC   =    -22986.65829202
  -exchange      EXHF   =         0.00000000
  -V(xc)+E(xc)   XCENC  =      2120.94909331
  PAW double counting   =     39033.67283979   -39195.27757461
  entropy T*S    EENTRO =        -0.04997107
  eigenvalues    EBANDS =     -5419.39794530
  atomic energy  EATOM  =     27815.60422923
  Solvation  Ediel_sol  =         0.00000000
  ---------------------------------------------------
  free energy    TOTEN  =     -1182.85258471 eV

  energy without entropy =    -1182.80261365  energy(sigma->0) =    -1182.82759918


--------------------------------------------------------------------------------------------------------




--------------------------------------- Iteration      1(  13)  ---------------------------------------


    POTLOK:  cpu time    0.1604: real time    0.1891
    SETDIJ:  cpu time    0.0610: real time    0.0610
     EDDAV:  cpu time   37.6495: real time   37.7148
       DOS:  cpu time    0.0051: real time    0.0051
    CHARGE:  cpu time    0.9160: real time    0.9171
    MIXING:  cpu time    0.0052: real time    0.0052
    --------------------------------------------
      LOOP:  cpu time   38.7972: real time   38.8922

 eigenvalue-minimisations  : 14848
 total energy-change (2. order) :-0.6483768E+00  (-0.6350693E+02)
 number of electron     599.9999958 magnetization      -0.0530682
 augmentation part       41.1327879 magnetization       0.4090089

 Broyden mixing:
  rms(total) = 0.62246E+01    rms(broyden)= 0.62245E+01
  rms(prec ) = 0.71214E+01
  weight for this iteration     100.00

 eigenvalues of (default mixing * dielectric matrix)
  average eigenvalue GAMMA=   0.3917
  0.8871  0.3359  0.3359  0.2372  0.1626

 Free energy of the ion-electron system (eV)
  ---------------------------------------------------
  alpha Z        PSCENC =       928.84128172
  Ewald energy   TEWEN  =     -3480.53624576
  -Hartree energ DENC   =    -23157.34153057
  -exchange      EXHF   =         0.00000000
  -V(xc)+E(xc)   XCENC  =      2131.88425459
  PAW double counting   =     45121.28862755   -45283.69111909
  entropy T*S    EENTRO =        -0.05843959
  eigenvalues    EBANDS =     -5259.49201962
  atomic energy  EATOM  =     27815.60422923
  Solvation  Ediel_sol  =         0.00000000
  ---------------------------------------------------
  free energy    TOTEN  =     -1183.50096154 eV

  energy without entropy =    -1183.44252195  energy(sigma->0) =    -1183.47174174


--------------------------------------------------------------------------------------------------------




--------------------------------------- Iteration      1(  14)  ---------------------------------------


    POTLOK:  cpu time    0.1565: real time    0.1567
    SETDIJ:  cpu time    0.0607: real time    0.0607
     EDDAV:  cpu time   39.8170: real time   39.8954
       DOS:  cpu time    0.0051: real time    0.0052
    CHARGE:  cpu time    0.9090: real time    0.9100
    MIXING:  cpu time    0.0053: real time    0.0053
    --------------------------------------------
      LOOP:  cpu time   40.9536: real time   41.0332

 eigenvalue-minimisations  : 15904
 total energy-change (2. order) :-0.3596649E+01  (-0.4313968E+02)
 number of electron     599.9999955 magnetization      -0.0763790
 augmentation part       40.8142514 magnetization      -0.5613927

 Broyden mixing:
  rms(total) = 0.63864E+01    rms(broyden)= 0.63864E+01
  rms(prec ) = 0.73067E+01
  weight for this iteration     100.00

 eigenvalues of (default mixing * dielectric matrix)
  average eigenvalue GAMMA=   0.5444
  1.7739  0.5388  0.3407  0.3407  0.2047  0.0678

 Free energy of the ion-electron system (eV)
  ---------------------------------------------------
  alpha Z        PSCENC =       928.84128172
  Ewald energy   TEWEN  =     -3480.53624576
  -Hartree energ DENC   =    -23196.50037456
  -exchange      EXHF   =         0.00000000
  -V(xc)+E(xc)   XCENC  =      2134.40901434
  PAW double counting   =     46343.57652104   -46506.24614922
  entropy T*S    EENTRO =        -0.04923715
[...]
   80            fft3d_mpi                            37.974329                     7700   5
   81              fftbas_plan_mpi                      37.943108                   7700   6
   82                dfftw_execute                        17.337401                23100   7
   83                map_forward                          16.406637                15400   7
   84                  map_gather                            4.079354               7700   8
   85                  m_alltoallv_z                         4.403878               7700   8
   86                  map_scatter                           4.815038               7700   8
   87          pw_charge                             4.231468                       7700   4
   88          fft3d_mpi                             0.573521                        110   4
   89            fftbas_plan_mpi                       0.531402                      110   5
   90              dfftw_execute                         0.168463                    330   6
   91              map_backward                          0.303734                    220   6
   92                map_gather                            0.065444                  220   7
   93                m_alltoallv_z                         0.231620                  220   7
   94                map_scatter                           0.003857                  220   7
   95        depsum                                0.196022                           55   3
   96        fft3d_mpi                             0.574572                          110   3
   97          fftbas_plan_mpi                       0.564357                        110   4
   98            dfftw_execute                         0.063194                      330   5
   99            map_backward                          0.424901                      220   5
  100              map_gather                            0.011990                    110   6
  101              m_alltoallv_z                         0.385679                    110   6
  102              map_scatter                           0.025470                    110   6
  103      brmix                                 0.660288                             55   2
  104        brpre                                 0.005410                          110   3
  105        setg0                                 0.067802                           57   3
  106        broyd                                 0.446584                           55   3
  107          brsav                                 0.014577                       1929   4
  108          brget                                 0.057112                       8907   4
  109      force_and_stress                     26.969559                              1   2
  110        set_charge                            0.908123                            1   3
  111          soft_charge                           0.861854                          1   4
  112            fftwav_mpi                            0.747599                      140   5
  113              fft3d_mpi                             0.672398                    140   6
  114                fftbas_plan_mpi                       0.671870                  140   7
  115                  dfftw_execute                         0.312967                420   8
  116                  map_forward                           0.284350                280   8
  117                    map_gather                            0.072716              140   9
  118                    m_alltoallv_z                         0.067051              140   9
  119                    map_scatter                           0.088309              140   9
  120            pw_charge                             0.075821                      140   5
  121            fft3d_mpi                             0.008142                        2   5
  122              fftbas_plan_mpi                       0.007328                      2   6
  123                dfftw_execute                         0.003094                    6   7
  124                map_backward                          0.003194                    4   7
  125                  map_gather                            0.001051                  4   8
  126                  m_alltoallv_z                         0.001986                  4   8
  127                  map_scatter                           0.000066                  4   8
  128          depsum                                0.003528                          1   4
  129          fft3d_mpi                             0.007944                          2   4
  130            fftbas_plan_mpi                       0.007772                        2   5
  131              dfftw_execute                         0.001283                      6   6
  132              map_backward                          0.005249                      4   6
  133                map_gather                            0.000201                    2   7
  134                m_alltoallv_z                         0.004498                    2   7
  135                map_scatter                           0.000515                    2   7
  136        forloc                                0.092065                            1   3
  137        fornlr                                4.301033                            1   3
  138          rspher_all                            0.096931                          3   4
  139          phaser                                0.306488                         21   4
  140          rpro_isp                              3.519794                         21   4
  141            fftwav_mpi                            2.635792                      504   5
  142              fft3d_mpi                             2.365070                    504   6
  143                fftbas_plan_mpi                       2.363172                  504   7
  144                  dfftw_execute                         1.121359               1512   8
  145                  map_forward                           0.975923               1008   8
  146                    map_gather                            0.250058              504   9
  147                    m_alltoallv_z                         0.228962              504   9
  148                    map_scatter                           0.303328              504   9
  149            rpromu                                0.878763                      126   5
  150              crrexp_mul_wave                       0.443880                  78624   6
  151              rpromu_gemm                           0.283914                  19656   6
  152        fordep                                0.181177                            1   3
  153          setdij_                               0.180693                          6   4
  154        setdij_                               0.600662                           20   3
  155        set_dd_paw                            0.030305                            1   3
  156        strkin                                0.018943                            1   3
  157        strelo                                0.004344                            1   3
  158        strnlr                               12.314791                            1   3
  159          rspher_all                            0.285985                          9   4
  160          phaser                                0.919794                         63   4
  161          rpro_isp                             10.508975                         63   4
  162            fftwav_mpi                            7.904856                     1512   5
  163              fft3d_mpi                             7.110106                   1512   6
  164                fftbas_plan_mpi                       7.104615                 1512   7
  165                  dfftw_execute                         3.367315               4536   8
  166                  map_forward                           2.941084               3024   8
  167                    map_gather                            0.764248             1512   9
  168                    m_alltoallv_z                         0.673308             1512   9
  169                    map_scatter                           0.916597             1512   9
  170            rpromu                                2.589096                      378   5
  171              crrexp_mul_wave                       1.302846                 235872   6
  172              rpromu_gemm                           0.845232                  58968   6
  173        fft3d_mpi                             0.152756                           22   3
  174          fftbas_plan_mpi                       0.150837                         22   4
  175            dfftw_execute                         0.012741                       66   5
  176            map_forward                           0.018521                       20   5
  177              map_gather                            0.001224                     10   6
  178              m_alltoallv_z                         0.015441                     10   6
  179              map_scatter                           0.001688                     10   6
  180            map_backward                          0.104379                       24   5
  181              map_gather                            0.001311                     12   6
  182              m_alltoallv_z                         0.100206                     12   6
  183              map_scatter                           0.002681                     12   6
  184        forhar                                0.164377                            2   3
  185        strehar                               0.011442                            1   3
  186        chggra                                0.013269                            1   3
  187          fft3d_mpi                             0.010219                          3   4
  188            fftbas_plan_mpi                       0.009917                        3   5
  189              dfftw_execute                         0.001798                      9   6
  190              map_forward                           0.004332                      4   6
  191                map_gather                            0.000201                    2   7
  192                m_alltoallv_z                         0.003727                    2   7
  193                map_scatter                           0.000370                    2   7
  194              map_backward                          0.001768                      2   6
  195                map_gather                            0.000100                    1   7
  196                m_alltoallv_z                         0.001459                    1   7
  197                map_scatter                           0.000190                    1   7
  198        brmix                                 0.018982                            1   3
  199          brpre                                 0.000070                          2   4
  200          setg0                                 0.001186                          1   4
  201          broyd                                 0.014978                          1   4
  202            brget                                 0.002512                      366   5
  203            brsav                                 0.001094                      163   5
 
 Flat profile
 ============
 
             routine name                   CPU           calls
 ---------------------------------------------------------------
 eddav                                 976.188065          63
 dfftw_execute                         265.828408      353898
 total_time                            257.248902           1
 redis_pw                              207.719645      107998
 orth1                                 148.558779      116958
 redis_proj                             88.053144      136358
 m_alltoallv_z                          84.586552      118192
 map_scatter                            78.349171      118192
 map_gather                             68.403914      118192
 fftbas_plan_mpi                        63.876663      117968
 fftwav_mpi                             56.569174       77300
 crrexp_mul_work_add                    55.621405     6073080
 racc0                                  53.306514       38930
 map_forward                            38.771389      156230
 rpro1                                  35.538193       28346
 vhamil                                 34.786823       38930
 crrexp_mul_wave                        26.523103     4762680
 lincom                                 22.094716         896
 phaser                                 14.179029         973
 w1_copy                                 9.649149      116790
 force_and_stress                        8.157290           1
 fftext_mpi                              7.397473       38930
 eccp                                    7.112221       10584
 kinhamil                                4.350831       38930
 pw_charge                               4.307289        7840
 setdij_                                 2.596590          84
 apply_precond                           2.482563       28346
 overl                                   2.142628       67290
 set_charge                              1.964537          56
 set_dd_paw                              1.897638          58
 soft_charge                             1.722475          56
 overl1                                  1.704359       38930
 setup_precond                           1.354558       10584
 rpromu_gemm                             1.244431       85176
 map_backward                            0.801070       79702
 fft3d_mpi                               0.686890      117966
 rpromu                                  0.641926         546
 strnlr                                  0.600037           1
 hamiltmu                                0.596894       38930
 rspher_all                              0.425283          14
 broyd                                   0.386266          56
 fornlr                                  0.377820           1
 raccmu_                                 0.278324       38930
 choleski                                0.277655          14
 orthch                                  0.243972           1
 depsum                                  0.199550          56
 w1_projall                              0.176347       28346
 forhar                                  0.164377           2
 brmix                                   0.143239          56
 forloc                                  0.092065           1
 setg0                                   0.068988          58
 brget                                   0.059624        9273
 truncate_high_frequency_w1              0.034522       49514
 rpro_isp                                0.022109          91
 strkin                                  0.018943           1
 brgrid                                  0.017753           1
 brsav                                   0.015672        2092
 strehar                                 0.011442           1
 brpre                                   0.005480         112
 strelo                                  0.004344           1
 chggra                                  0.003050           1
 fordep                                  0.000484           1
 redis_pw_over_bands                     0.000001           1
 ---------------------------------------------------------------
  summed up times    2640.64174890518     
 
 Accumulative profile
 ====================
 
             routine name                   CPU           calls
 ---------------------------------------------------------------
 total_time                           2640.641749           1
 eddav                                2292.365000          63
 fft3d_mpi                             601.263104      117966
 fftbas_plan_mpi                       600.617167      117968
 fftwav_mpi                            470.863446       77300
 hamiltmu                              338.545499       38930
 dfftw_execute                         265.828408      353898
 redis_pw                              207.719645      107998
 map_forward                           198.595939      156230
 kinhamil                              192.251180       38930
 fftext_mpi                            187.900349       38930
 orth1                                 148.558779      116958
 raccmu_                               110.910602       38930
 racc0                                 108.927919       38930
 redis_proj                             88.053144      136358
 m_alltoallv_z                          84.586552      118192
 map_scatter                            78.349171      118192
 map_backward                           72.316157       79702
 map_gather                             68.403914      118192
 w1_projall                             60.342449       28346
 rpro1                                  60.166103       28346
 crrexp_mul_work_add                    55.621405     6073080
 set_charge                             52.275857          56
 soft_charge                            49.529255          56
 vhamil                                 34.786823       38930
 force_and_stress                       26.969559           1
 crrexp_mul_wave                        26.523103     4762680
 lincom                                 22.094716         896
 rpro_isp                               15.279934          91
 phaser                                 14.179029         973
 strnlr                                 12.314791           1
 w1_copy                                 9.649149      116790
 eccp                                    7.112221       10584
 pw_charge                               4.307289        7840
 fornlr                                  4.301033           1
 rpromu                                  3.781550         546
 setdij_                                 2.596590          84
 apply_precond                           2.482563       28346
 overl                                   2.142628       67290
 set_dd_paw                              1.897638          58
 orthch                                  1.750932           1
 overl1                                  1.704359       38930
 setup_precond                           1.354558       10584
 rpromu_gemm                             1.244431       85176
 brmix                                   0.679270          56
 broyd                                   0.461562          56
 rspher_all                              0.425283          14
 choleski                                0.277655          14
 depsum                                  0.199550          56
 fordep                                  0.181177           1
 forhar                                  0.164377           2
 forloc                                  0.092065           1
 setg0                                   0.068988          58
 brget                                   0.059624        9273
 truncate_high_frequency_w1              0.034522       49514
 strkin                                  0.018943           1
 brgrid                                  0.017753           1
 brsav                                   0.015672        2092
 chggra                                  0.013269           1
 strehar                                 0.011442           1
 brpre                                   0.005480         112
 strelo                                  0.004344           1
 redis_pw_over_bands                     0.000001           1
 ---------------------------------------------------------------
 
Profiling took   7.434428  4.245039  0.009004  0.008614 seconds
Profiling took   8.693066 seconds
