       N       E                     dE             d eps       ncg     rms          rms(c)
DAV:   1     0.454180962073E+04    0.45418E+04   -0.31625E+05 10752   0.162E+03
DAV:   2    -0.736452327158E+03   -0.52783E+04   -0.50731E+04 12704   0.361E+02
DAV:   3    -0.127096305260E+04   -0.53451E+03   -0.52262E+03 13056   0.125E+02
DAV:   4    -0.129413909613E+04   -0.23176E+02   -0.22952E+02 15296   0.312E+01
DAV:   5    -0.129469367252E+04   -0.55458E+00   -0.55299E+00 13600   0.419E+00
DAV:   6    -0.129473121426E+04   -0.37542E-01   -0.37523E-01 16640   0.125E+00
DAV:   7    -0.129473187259E+04   -0.65833E-03   -0.65803E-03 13792   0.116E-01
DAV:   8    -0.129473189140E+04   -0.18819E-04   -0.18817E-04 16608   0.245E-02    0.973E+01
DAV:   9    -0.170891706134E+04   -0.41419E+03   -0.47383E+03 18848   0.976E+01    0.393E+02
DAV:  10    -0.162837744047E+04    0.80540E+02   -0.42432E+02 13504   0.343E+01    0.262E+02
DAV:  11    -0.119211817757E+04    0.43626E+03   -0.66475E+02 16000   0.898E+01    0.892E+01
DAV:  12    -0.118237560224E+04    0.97426E+01   -0.71638E+02 16256   0.839E+01    0.574E+01
DAV:  13    -0.126075328234E+04   -0.78378E+02   -0.14439E+03 15296   0.441E+01    0.818E+01
DAV:  14    -0.116729202193E+04    0.93461E+02   -0.45399E+01 16384   0.514E+01    0.337E+01
DAV:  15    -0.115768820805E+04    0.96038E+01   -0.25026E+02 15584   0.228E+01    0.216E+01
DAV:  16    -0.116609508812E+04   -0.84069E+01   -0.69591E+01 14752   0.127E+01    0.441E+01
DAV:  17    -0.117339928410E+04   -0.73042E+01   -0.19635E+02 16192   0.179E+01    0.529E+01
DAV:  18    -0.116825976203E+04    0.51395E+01   -0.15428E+02 15232   0.143E+01    0.454E+01
DAV:  19    -0.116297736041E+04    0.52824E+01   -0.55230E+01 16000   0.106E+01    0.287E+01
DAV:  20    -0.116296529941E+04    0.12061E-01   -0.65383E+01 16160   0.936E+00    0.272E+01
DAV:  21    -0.116222682517E+04    0.73847E+00   -0.13612E+01 14144   0.453E+00    0.175E+01
DAV:  22    -0.116303958506E+04   -0.81276E+00   -0.23605E+00 14496   0.221E+00    0.139E+01
DAV:  23    -0.116439029905E+04   -0.13507E+01   -0.41570E+00 14112   0.175E+00    0.195E+01
DAV:  24    -0.116455061650E+04   -0.16032E+00   -0.26666E-01 13088   0.112E+00    0.189E+01
DAV:  25    -0.116490936353E+04   -0.35875E+00   -0.24302E-01 13984   0.808E-01    0.188E+01
DAV:  26    -0.116529711203E+04   -0.38775E+00   -0.81220E-02 13568   0.608E-01    0.183E+01
DAV:  27    -0.116678013690E+04   -0.14830E+01   -0.18420E+00 13344   0.257E+00    0.158E+01
DAV:  28    -0.116725475657E+04   -0.47462E+00   -0.39176E-01 13408   0.106E+00    0.157E+01
DAV:  29    -0.116737259373E+04   -0.11784E+00   -0.55128E-02 13472   0.513E-01    0.155E+01
DAV:  30    -0.116736959598E+04    0.29978E-02   -0.33438E-03 12032   0.149E-01    0.156E+01
DAV:  31    -0.116797103174E+04   -0.60144E+00   -0.23308E+00 14688   0.237E+00    0.150E+01
DAV:  32    -0.116899878179E+04   -0.10278E+01   -0.81294E-01 13856   0.211E+00    0.157E+01
DAV:  33    -0.116884702835E+04    0.15175E+00   -0.89197E-01 14304   0.172E+00    0.131E+01
DAV:  34    -0.116892999829E+04   -0.82970E-01   -0.11602E+00 14912   0.146E+00    0.125E+01
DAV:  35    -0.116900299829E+04   -0.73000E-01   -0.71023E-02 13728   0.687E-01    0.125E+01
DAV:  36    -0.116914057384E+04   -0.13758E+00   -0.42993E-01 15904   0.154E+00    0.124E+01
DAV:  37    -0.116924743291E+04   -0.10686E+00   -0.10114E-01 13984   0.640E-01    0.121E+01
DAV:  38    -0.116895653414E+04    0.29090E+00   -0.30512E-01 13504   0.119E+00    0.108E+01
DAV:  39    -0.116891905240E+04    0.37482E-01   -0.70001E-02 14880   0.694E-01    0.102E+01
DAV:  40    -0.116911085434E+04   -0.19180E+00   -0.25184E-01 14080   0.793E-01    0.102E+01
DAV:  41    -0.116911724056E+04   -0.63862E-02   -0.93449E-03 13632   0.260E-01    0.100E+01
DAV:  42    -0.116921089637E+04   -0.93656E-01   -0.27332E-02 14048   0.473E-01    0.958E+00
DAV:  43    -0.116943884158E+04   -0.22795E+00   -0.23559E-01 14880   0.181E+00    0.736E+00
DAV:  44    -0.116951820260E+04   -0.79361E-01   -0.82296E-02 16064   0.809E-01    0.641E+00
DAV:  45    -0.116951252662E+04    0.56760E-02   -0.71757E-03 12544   0.196E-01    0.640E+00
DAV:  46    -0.116952874642E+04   -0.16220E-01   -0.20896E-03 15840   0.216E-01    0.637E+00
DAV:  47    -0.116969747382E+04   -0.16873E+00   -0.90537E-02 14560   0.904E-01    0.613E+00
DAV:  48    -0.116973310646E+04   -0.35633E-01   -0.56223E-02 15680   0.855E-01    0.559E+00
DAV:  49    -0.116979134037E+04   -0.58234E-01   -0.50283E-02 15200   0.762E-01    0.485E+00
DAV:  50    -0.116984750041E+04   -0.56160E-01   -0.40466E-02 15232   0.765E-01    0.449E+00
DAV:  51    -0.116992351805E+04   -0.76018E-01   -0.34274E-02 14880   0.575E-01    0.430E+00
DAV:  52    -0.116999724704E+04   -0.73729E-01   -0.50868E-02 14336   0.632E-01    0.347E+00
DAV:  53    -0.117002818333E+04   -0.30936E-01   -0.21465E-02 14976   0.406E-01    0.313E+00
DAV:  54    -0.117006991404E+04   -0.41731E-01   -0.90876E-02 14208   0.120E+00    0.250E+00
DAV:  55    -0.117003035134E+04    0.39563E-01   -0.43258E-02 15936   0.103E+00    0.156E+00
DAV:  56    -0.117004175982E+04   -0.11408E-01   -0.33342E-02 15040   0.483E-01    0.158E+00
DAV:  57    -0.117005383365E+04   -0.12074E-01   -0.82098E-03 14624   0.460E-01    0.170E+00
DAV:  58    -0.117005245095E+04    0.13827E-02   -0.13273E-02 14656   0.523E-01    0.117E+00
DAV:  59    -0.117004983133E+04    0.26196E-02   -0.56639E-03 15232   0.291E-01    0.131E+00
DAV:  60    -0.117004753230E+04    0.22990E-02   -0.27462E-03 15072   0.338E-01    0.978E-01
DAV:  61    -0.117004720510E+04    0.32720E-03   -0.27075E-03 15296   0.297E-01    0.970E-01
DAV:  62    -0.117004785299E+04   -0.64789E-03   -0.14901E-03 13440   0.103E-01    0.101E+00
DAV:  63    -0.117004779904E+04    0.53948E-04   -0.59612E-05 15936   0.183E-02    0.101E+00
DAV:  64    -0.117004712639E+04    0.67265E-03   -0.68515E-03 14528   0.390E-01    0.152E+00
DAV:  65    -0.117004765557E+04   -0.52918E-03   -0.11862E-03 14656   0.124E-01    0.135E+00
DAV:  66    -0.117004824260E+04   -0.58703E-03   -0.11929E-03 15328   0.138E-01    0.116E+00
DAV:  67    -0.117004836818E+04   -0.12558E-03   -0.16187E-03 15328   0.163E-01    0.909E-01
DAV:  68    -0.117005004584E+04   -0.16777E-02   -0.43667E-03 15168   0.208E-01    0.105E+00
DAV:  69    -0.117005114313E+04   -0.10973E-02   -0.15698E-03 15488   0.101E-01    0.991E-01
DAV:  70    -0.117005008556E+04    0.10576E-02   -0.32032E-04 16608   0.113E-01    0.671E-01
DAV:  71    -0.117005015027E+04   -0.64708E-04   -0.10340E-03 14912   0.143E-01    0.352E-01
DAV:  72    -0.117005135064E+04   -0.12004E-02   -0.15213E-03 15040   0.108E-01    0.296E-01
DAV:  73    -0.117005252983E+04   -0.11792E-02   -0.11915E-03 13280   0.102E-01    0.170E-01
DAV:  74    -0.117005314561E+04   -0.61578E-03   -0.31005E-04 13632   0.594E-02    0.304E-01
DAV:  75    -0.117005319609E+04   -0.50478E-04   -0.28756E-04 15232   0.783E-02    0.107E-01
DAV:  76    -0.117005333004E+04   -0.13395E-03   -0.17307E-04 13152   0.531E-02    0.148E-01
DAV:  77    -0.117005340874E+04   -0.78699E-04   -0.12255E-04 14016   0.388E-02    0.221E-01
DAV:  78    -0.117005332720E+04    0.81542E-04   -0.84905E-05 14336   0.344E-02    0.139E-01
DAV:  79    -0.117005331129E+04    0.15911E-04   -0.29610E-04 14720   0.542E-02    0.134E-01
DAV:  80    -0.117005328600E+04    0.25290E-04   -0.51985E-05 15552   0.526E-02    0.109E-01
DAV:  81    -0.117005329440E+04   -0.84041E-05   -0.50213E-05 13760   0.234E-02    0.106E-01
DAV:  82    -0.117005327593E+04    0.18468E-04   -0.22626E-05 13984   0.142E-02    0.715E-02
DAV:  83    -0.117005327099E+04    0.49430E-05   -0.17016E-05 13632   0.125E-02    0.606E-02
DAV:  84    -0.117005326289E+04    0.80950E-05   -0.66508E-06 11552   0.127E-02    0.246E-02
DAV:  85    -0.117005326358E+04   -0.68233E-06   -0.85770E-06 11616   0.843E-03
   1 F= -.11861984E+04 E0= -.11861804E+04  d E =-.118620E+04  mag=     0.0234
