 vasp.5.4.4.18Apr17-6-g9f103f2a35 (build May 22 2020 17:00:04) complex          
  
 executed on           IFC15_impi date 2020.09.28  02:22:40
 running on  128 total cores
 distrk:  each k-point on  128 cores,    1 groups
 distr:  one band on NCORES_PER_BAND=   4 cores,   32 groups


--------------------------------------------------------------------------------------------------------


 INCAR:
 POTCAR:    PAW_PBE C 08Apr2002                   
 POTCAR:    PAW_PBE Fe 06Sep2000                  
 POTCAR:    PAW_PBE H 15Jun2001                   
 POTCAR:    PAW_PBE N 08Apr2002                   
 POTCAR:    PAW_PBE O 08Apr2002                   

 ----------------------------------------------------------------------------- 
|                                                                             |
|           W    W    AA    RRRRR   N    N  II  N    N   GGGG   !!!           |
|           W    W   A  A   R    R  NN   N  II  NN   N  G    G  !!!           |
|           W    W  A    A  R    R  N N  N  II  N N  N  G       !!!           |
|           W WW W  AAAAAA  RRRRR   N  N N  II  N  N N  G  GGG   !            |
|           WW  WW  A    A  R   R   N   NN  II  N   NN  G    G                |
|           W    W  A    A  R    R  N    N  II  N    N   GGGG   !!!           |
|                                                                             |
|      For optimal performance we recommend to set                            |
|        NCORE= 4 - approx SQRT( number of cores)                             |
|      NCORE specifies how many cores store one orbital (NPAR=cpu/NCORE).     |
|      This setting can  greatly improve the performance of VASP for DFT.     |
|      The default,   NCORE=1            might be grossly inefficient         |
|      on modern multi-core architectures or massively parallel machines.     |
|      Do your own testing !!!!                                               |
|      Unfortunately you need to use the default for GW and RPA calculations. |
|      (for HF NCORE is supported but not extensively tested yet)             |
|                                                                             |
 ----------------------------------------------------------------------------- 

 POTCAR:    PAW_PBE C 08Apr2002                   
   VRHFIN =C: s2p2                                                              
   LEXCH  = PE                                                                  
   EATOM  =   147.1560 eV,   10.8157 Ry                                         
                                                                                
   TITEL  = PAW_PBE C 08Apr2002                                                 
   LULTRA =        F    use ultrasoft PP ?                                      
   IUNSCR =        1    unscreen: 0-lin 1-nonlin 2-no                           
   RPACOR =    1.200    partial core radius                                     
   POMASS =   12.011; ZVAL   =    4.000    mass and valenz                      
   RCORE  =    1.500    outmost cutoff radius                                   
   RWIGS  =    1.630; RWIGS  =    0.863    wigner-seitz radius (au A)           
   ENMAX  =  400.000; ENMIN  =  300.000 eV                                      
   ICORE  =        2    local potential                                         
   LCOR   =        T    correct aug charges                                     
   LPAW   =        T    paw PP                                                  
   EAUG   =  644.873                                                            
   DEXC   =    0.000                                                            
   RMAX   =    1.529    core radius for proj-oper                               
   RAUG   =    1.300    factor for augmentation sphere                          
   RDEP   =    1.501    radius for radial grids                                 
   RDEPT  =    1.300    core radius for aug-charge                              
                                                                                
   Atomic configuration                                                         
    4 entries                                                                   
     n  l   j            E        occ.                                          
     1  0  0.50      -273.3789   2.0000                                         
     2  0  0.50       -13.7508   2.0000                                         
     2  1  0.50        -5.2854   2.0000                                         
     3  2  1.50        -5.4423   0.0000                                         
   Description                                                                  
     l       E           TYP  RCUT    TYP  RCUT                                 
     0    -13.7508458     23  1.200                                             
     0     -8.2022199     23  1.200                                             
     1     -5.2854383     23  1.500                                             
     1     34.0145650     23  1.500                                             
     2     -5.4423304      7  1.500                                             
  local pseudopotential read in
  partial core-charges read in
  partial kinetic energy density read in
  atomic valenz-charges read in
  non local Contribution for L=           0  read in
    real space projection operators read in
  non local Contribution for L=           0  read in
    real space projection operators read in
  non local Contribution for L=           1  read in
    real space projection operators read in
  non local Contribution for L=           1  read in
    real space projection operators read in
    PAW grid and wavefunctions read in
 
   number of l-projection  operators is LMAX  =           4
   number of lm-projection operators is LMMAX =           8
 
 POTCAR:    PAW_PBE Fe 06Sep2000                  
   VRHFIN =Fe:  d7 s1                                                           
   LEXCH  = PE                                                                  
   EATOM  =   594.3153 eV,   43.6809 Ry                                         
                                                                                
   TITEL  = PAW_PBE Fe 06Sep2000                                                
   LULTRA =        F    use ultrasoft PP ?                                      
   IUNSCR =        1    unscreen: 0-lin 1-nonlin 2-no                           
   RPACOR =    2.000    partial core radius                                     
   POMASS =   55.847; ZVAL   =    8.000    mass and valenz                      
   RCORE  =    2.300    outmost cutoff radius                                   
   RWIGS  =    2.460; RWIGS  =    1.302    wigner-seitz radius (au A)           
   ENMAX  =  267.882; ENMIN  =  200.911 eV                                      
   RCLOC  =    1.701    cutoff for local pot                                    
   LCOR   =        T    correct aug charges                                     
   LPAW   =        T    paw PP                                                  
   EAUG   =  511.368                                                            
   DEXC   =    0.000                                                            
   RMAX   =    2.356    core radius for proj-oper                               
   RAUG   =    1.300    factor for augmentation sphere                          
   RDEP   =    2.442    radius for radial grids                                 
   RDEPT  =    1.890    core radius for aug-charge                              
                                                                                
   Atomic configuration                                                         
    9 entries                                                                   
     n  l   j            E        occ.                                          
     1  0  0.50     -6993.8440   2.0000                                         
     2  0  0.50      -814.6047   2.0000                                         
     2  1  1.50      -693.3689   6.0000                                         
     3  0  0.50       -89.4732   2.0000                                         
     3  1  1.50       -55.6373   6.0000                                         
     3  2  2.50        -3.8151   7.0000                                         
     4  0  0.50        -4.2551   1.0000                                         
     4  1  1.50        -3.4015   0.0000                                         
     4  3  2.50        -1.3606   0.0000                                         
   Description                                                                  
     l       E           TYP  RCUT    TYP  RCUT                                 
     2     -3.8151135     23  2.300                                             
     2     -5.1756961     23  2.300                                             
     0     -4.2550963     23  2.300                                             
     0      7.2035603     23  2.300                                             
     1     -2.7211652     23  2.300                                             
     1     18.4316424     23  2.300                                             
  local pseudopotential read in
  partial core-charges read in
  partial kinetic energy density read in
  atomic valenz-charges read in
  non local Contribution for L=           2  read in
    real space projection operators read in
  non local Contribution for L=           2  read in
    real space projection operators read in
  non local Contribution for L=           0  read in
    real space projection operators read in
  non local Contribution for L=           0  read in
    real space projection operators read in
  non local Contribution for L=           1  read in
    real space projection operators read in
  non local Contribution for L=           1  read in
    real space projection operators read in
    PAW grid and wavefunctions read in
 
   number of l-projection  operators is LMAX  =           6
   number of lm-projection operators is LMMAX =          18
 
 POTCAR:    PAW_PBE H 15Jun2001                   
   VRHFIN =H: ultrasoft test                                                    
   LEXCH  = PE                                                                  
   EATOM  =    12.4884 eV,    0.9179 Ry                                         
                                                                                
   TITEL  = PAW_PBE H 15Jun2001                                                 
   LULTRA =        F    use ultrasoft PP ?                                      
   IUNSCR =        0    unscreen: 0-lin 1-nonlin 2-no                           
   RPACOR =    0.000    partial core radius                                     
   POMASS =    1.000; ZVAL   =    1.000    mass and valenz                      
   RCORE  =    1.100    outmost cutoff radius                                   
   RWIGS  =    0.700; RWIGS  =    0.370    wigner-seitz radius (au A)           
   ENMAX  =  250.000; ENMIN  =  200.000 eV                                      
   RCLOC  =    0.701    cutoff for local pot                                    
   LCOR   =        T    correct aug charges                                     
   LPAW   =        T    paw PP                                                  
   EAUG   =  400.000                                                            
   RMAX   =    1.123    core radius for proj-oper                               
   RAUG   =    1.200    factor for augmentation sphere                          
   RDEP   =    1.112    radius for radial grids                                 
   RDEPT  =    0.926    core radius for aug-charge                              
                                                                                
   Atomic configuration                                                         
    2 entries                                                                   
     n  l   j            E        occ.                                          
     1  0  0.50        -6.4927   1.0000                                         
     2  1  0.50        -3.4015   0.0000                                         
   Description                                                                  
     l       E           TYP  RCUT    TYP  RCUT                                 
     0     -6.4927494     23  1.100                                             
     0      6.8029130     23  1.100                                             
     1     -4.0817478     23  1.100                                             
  local pseudopotential read in
  atomic valenz-charges read in
  non local Contribution for L=           0  read in
    real space projection operators read in
  non local Contribution for L=           0  read in
    real space projection operators read in
  non local Contribution for L=           1  read in
    real space projection operators read in
    PAW grid and wavefunctions read in
 
   number of l-projection  operators is LMAX  =           3
   number of lm-projection operators is LMMAX =           5
 
 POTCAR:    PAW_PBE N 08Apr2002                   
   VRHFIN =N: s2p3                                                              
   LEXCH  = PE                                                                  
   EATOM  =   264.5486 eV,   19.4438 Ry                                         
                                                                                
   TITEL  = PAW_PBE N 08Apr2002                                                 
   LULTRA =        F    use ultrasoft PP ?                                      
   IUNSCR =        1    unscreen: 0-lin 1-nonlin 2-no                           
   RPACOR =    1.200    partial core radius                                     
   POMASS =   14.001; ZVAL   =    5.000    mass and valenz                      
   RCORE  =    1.500    outmost cutoff radius                                   
   RWIGS  =    1.400; RWIGS  =    0.741    wigner-seitz radius (au A)           
   ENMAX  =  400.000; ENMIN  =  300.000 eV                                      
   ICORE  =        2    local potential                                         
   LCOR   =        T    correct aug charges                                     
   LPAW   =        T    paw PP                                                  
   EAUG   =  627.112                                                            
   DEXC   =    0.000                                                            
   RMAX   =    1.529    core radius for proj-oper                               
   RAUG   =    1.300    factor for augmentation sphere                          
   RDEP   =    1.514    radius for radial grids                                 
   RDEPT  =    1.338    core radius for aug-charge                              
                                                                                
   Atomic configuration                                                         
    4 entries                                                                   
     n  l   j            E        occ.                                          
     1  0  0.50      -384.7179   2.0000                                         
     2  0  0.50       -18.5828   2.0000                                         
     2  1  0.50        -7.0898   3.0000                                         
     3  2  1.50        -6.8029   0.0000                                         
   Description                                                                  
     l       E           TYP  RCUT    TYP  RCUT                                 
     0    -18.5828119     23  1.200                                             
     0    -13.5018863     23  1.200                                             
     1     -7.0897853     23  1.500                                             
     1      9.5240782     23  1.500                                             
     2     -6.8029130      7  1.500                                             
  local pseudopotential read in
  partial core-charges read in
  partial kinetic energy density read in
  atomic valenz-charges read in
  non local Contribution for L=           0  read in
    real space projection operators read in
  non local Contribution for L=           0  read in
    real space projection operators read in
  non local Contribution for L=           1  read in
    real space projection operators read in
  non local Contribution for L=           1  read in
    real space projection operators read in
    PAW grid and wavefunctions read in
 
   number of l-projection  operators is LMAX  =           4
   number of lm-projection operators is LMMAX =           8
 
 POTCAR:    PAW_PBE O 08Apr2002                   
   VRHFIN =O: s2p4                                                              
   LEXCH  = PE                                                                  
   EATOM  =   432.3788 eV,   31.7789 Ry                                         
                                                                                
   TITEL  = PAW_PBE O 08Apr2002                                                 
   LULTRA =        F    use ultrasoft PP ?                                      
   IUNSCR =        1    unscreen: 0-lin 1-nonlin 2-no                           
   RPACOR =    1.200    partial core radius                                     
   POMASS =   16.000; ZVAL   =    6.000    mass and valenz                      
   RCORE  =    1.520    outmost cutoff radius                                   
   RWIGS  =    1.550; RWIGS  =    0.820    wigner-seitz radius (au A)           
   ENMAX  =  400.000; ENMIN  =  300.000 eV                                      
   ICORE  =        2    local potential                                         
   LCOR   =        T    correct aug charges                                     
   LPAW   =        T    paw PP                                                  
   EAUG   =  605.392                                                            
   DEXC   =    0.000                                                            
   RMAX   =    1.553    core radius for proj-oper                               
   RAUG   =    1.300    factor for augmentation sphere                          
   RDEP   =    1.550    radius for radial grids                                 
   RDEPT  =    1.329    core radius for aug-charge                              
                                                                                
   Atomic configuration                                                         
    4 entries                                                                   
     n  l   j            E        occ.                                          
     1  0  0.50      -514.6923   2.0000                                         
     2  0  0.50       -23.9615   2.0000                                         
     2  1  0.50        -9.0305   4.0000                                         
     3  2  1.50        -9.5241   0.0000                                         
   Description                                                                  
     l       E           TYP  RCUT    TYP  RCUT                                 
     0    -23.9615318     23  1.200                                             
     0     -9.5240782     23  1.200                                             
     1     -9.0304911     23  1.520                                             
     1      8.1634956     23  1.520                                             
     2     -9.5240782      7  1.500                                             
  local pseudopotential read in
  partial core-charges read in
  partial kinetic energy density read in
  kinetic energy density of atom read in
  atomic valenz-charges read in
  non local Contribution for L=           0  read in
    real space projection operators read in
  non local Contribution for L=           0  read in
    real space projection operators read in
  non local Contribution for L=           1  read in
    real space projection operators read in
  non local Contribution for L=           1  read in
    real space projection operators read in
    PAW grid and wavefunctions read in
 
   number of l-projection  operators is LMAX  =           4
   number of lm-projection operators is LMMAX =           8
 
 Optimization of the real space projectors (new method)

 maximal supplied QI-value         = 25.13
 optimisation between [QCUT,QGAM] = [ 12.32, 24.88] = [ 42.47,173.37] Ry 
 Optimized for a Real-space Cutoff    1.06 Angstroem

   l    n(q)    QCUT    max X(q) W(low)/X(q) W(high)/X(q)  e(spline) 
   0      8    12.315   115.676    0.34E-03    0.18E-03    0.23E-06
   0      8    12.315    87.132    0.34E-03    0.18E-03    0.22E-06
   1      7    12.315     4.429    0.45E-03    0.12E-03    0.18E-06
   1      7    12.315     2.733    0.35E-03    0.97E-04    0.15E-06
 Optimization of the real space projectors (new method)

 maximal supplied QI-value         = 16.25
 optimisation between [QCUT,QGAM] = [ 12.51, 25.03] = [ 43.85,175.40] Ry 
 Optimized for a Real-space Cutoff    1.35 Angstroem

   l    n(q)    QCUT    max X(q) W(low)/X(q) W(high)/X(q)  e(spline) 
   2      9    12.514    80.901    0.12E-03    0.34E-03    0.58E-06
   2      9    12.514    75.754    0.12E-03    0.34E-03    0.59E-06
   0     10    12.514    58.752    0.17E-03    0.81E-04    0.93E-07
   0     10    12.514    30.679    0.15E-03    0.74E-04    0.88E-07
   1     10    12.514    17.977    0.11E-03    0.79E-04    0.24E-06
   1     10    12.514    13.559    0.97E-04    0.61E-04    0.20E-06
 Optimization of the real space projectors (new method)

 maximal supplied QI-value         = 34.20
 optimisation between [QCUT,QGAM] = [ 12.31, 24.97] = [ 42.46,174.58] Ry 
 Optimized for a Real-space Cutoff    1.00 Angstroem

   l    n(q)    QCUT    max X(q) W(low)/X(q) W(high)/X(q)  e(spline) 
   0      7    12.313    19.460    0.14E-03    0.42E-03    0.16E-06
   0      7    12.313    12.209    0.12E-03    0.40E-03    0.16E-06
   1      7    12.313     4.655    0.33E-03    0.59E-03    0.89E-07
 Optimization of the real space projectors (new method)

 maximal supplied QI-value         = 25.13
 optimisation between [QCUT,QGAM] = [ 12.32, 24.88] = [ 42.47,173.37] Ry 
 Optimized for a Real-space Cutoff    1.20 Angstroem

   l    n(q)    QCUT    max X(q) W(low)/X(q) W(high)/X(q)  e(spline) 
   0      9    12.315    79.467    0.14E-03    0.22E-04    0.37E-06
   0      9    12.315    66.151    0.14E-03    0.23E-04    0.36E-06
   1      8    12.315    22.077    0.30E-03    0.54E-03    0.45E-06
   1      8    12.315    15.894    0.30E-03    0.55E-03    0.45E-06
 Optimization of the real space projectors (new method)

 maximal supplied QI-value         = 24.76
 optimisation between [QCUT,QGAM] = [ 12.38, 25.00] = [ 42.90,175.06] Ry 
 Optimized for a Real-space Cutoff    1.13 Angstroem

   l    n(q)    QCUT    max X(q) W(low)/X(q) W(high)/X(q)  e(spline) 
   0      8    12.378    20.381    0.16E-03    0.54E-05    0.27E-06
   0      8    12.378    15.268    0.17E-03    0.61E-05    0.29E-06
   1      8    12.378     5.964    0.38E-03    0.23E-03    0.28E-06
   1      8    12.378     5.382    0.33E-03    0.20E-03    0.25E-06
  PAW_PBE C 08Apr2002                   :
 energy of atom  1       EATOM= -147.1560
 kinetic energy error for atom=    0.0057 (will be added to EATOM!!)
  PAW_PBE Fe 06Sep2000                  :
 energy of atom  2       EATOM= -594.3153
 kinetic energy error for atom=    0.0017 (will be added to EATOM!!)
  PAW_PBE H 15Jun2001                   :
 energy of atom  3       EATOM=  -12.4884
 kinetic energy error for atom=    0.0004 (will be added to EATOM!!)
  PAW_PBE N 08Apr2002                   :
 energy of atom  4       EATOM= -264.5486
 kinetic energy error for atom=    0.0103 (will be added to EATOM!!)
  PAW_PBE O 08Apr2002                   :
 energy of atom  5       EATOM= -432.3788
 kinetic energy error for atom=    0.0168 (will be added to EATOM!!)
 
 
 POSCAR: FeH_8                                   
  positions in direct lattice
  velocities in cartesian coordinates
 exchange correlation table for  LEXCH =        8
   RHO(1)=    0.500       N(1)  =     2000
   RHO(2)=  100.500       N(2)  =     4000
 


--------------------------------------------------------------------------------------------------------


 ion  position               nearest neighbor table
   1  0.755  0.951  0.995- 107 1.09 117 1.36  65 1.40
   2  0.891  0.954  0.314- 112 1.08 118 1.34  65 1.39
   3  0.741  0.800  0.842- 116 1.09 119 1.36  66 1.40
   4  0.744  0.451  0.494- 110 1.09 120 1.36  67 1.40
   5  0.623  0.295  0.024- 111 1.08 121 1.34  68 1.39
   6  0.109  0.794  0.030- 115 1.08 122 1.34  69 1.39
   7  0.608  0.454  0.812- 101 1.08 123 1.34  67 1.39
   8  0.758  0.300  0.342- 113 1.09 124 1.36  68 1.40
   9  0.375  0.453  0.314- 114 1.08 125 1.34  70 1.39
  10  0.245  0.797  0.348- 104 1.09 126 1.36  69 1.40
  11  0.124  0.953  0.818- 105 1.08 127 1.34  71 1.39
  12  0.390  0.294  0.527- 102 1.08 128 1.34  72 1.39
  13  0.876  0.795  0.525- 108 1.08 129 1.34  66 1.39
  14  0.259  0.948  0.502- 109 1.09 130 1.36  71 1.40
  15  0.254  0.297  0.845- 106 1.09 131 1.36  72 1.40
  16  0.240  0.448  0.996- 103 1.09 132 1.36  70 1.40
  17  0.696  0.030  0.328- 141 1.23 133 1.41  33 1.47
  18  0.847  0.048  0.957- 142 1.23 133 1.41  34 1.47
  19  0.823  0.702  0.881- 143 1.23 134 1.41  35 1.47
  20  0.652  0.548  0.456- 144 1.23 135 1.41  36 1.47
  21  0.677  0.202  0.381- 145 1.23 136 1.41  37 1.47
  22  0.304  0.718  0.015- 146 1.23 137 1.41  38 1.47
  23  0.802  0.530  0.828- 147 1.23 135 1.41  39 1.47
  24  0.827  0.220  0.010- 148 1.23 136 1.41  40 1.47
  25  0.171  0.527  0.329- 149 1.23 138 1.41  41 1.47
  26  0.153  0.700  0.385- 150 1.23 137 1.41  42 1.47
  27  0.178  0.046  0.461- 151 1.23 139 1.41  43 1.47
  28  0.346  0.200  0.884- 152 1.23 140 1.41  44 1.47
  29  0.673  0.721  0.509- 153 1.23 134 1.41  45 1.47
  30  0.327  0.027  0.833- 154 1.23 139 1.41  46 1.47
  31  0.196  0.218  0.512- 155 1.23 140 1.41  47 1.47
  32  0.322  0.546  0.959- 156 1.23 138 1.41  48 1.47
  33  0.698  0.074  0.341-  49 1.39  73 1.41  17 1.47
  34  0.837  0.092  0.971-  50 1.39  73 1.41  18 1.47
  35  0.812  0.658  0.867-  51 1.39  74 1.41  19 1.47
  36  0.662  0.592  0.470-  52 1.39  75 1.41  20 1.47
  37  0.688  0.158  0.367-  53 1.39  76 1.41  21 1.47
  38  0.301  0.674  0.001-  54 1.39  77 1.41  22 1.47
  39  0.801  0.574  0.841-  55 1.39  75 1.41  23 1.47
  40  0.827  0.176  0.997-  56 1.39  76 1.41  24 1.47
  41  0.172  0.571  0.342-  57 1.39  78 1.41  25 1.47
  42  0.162  0.656  0.370-  58 1.39  77 1.41  26 1.47
  43  0.188  0.090  0.475-  59 1.39  79 1.41  27 1.47
  44  0.337  0.156  0.870-  60 1.39  80 1.41  28 1.47
  45  0.673  0.676  0.496-  61 1.39  74 1.41  29 1.47
  46  0.327  0.071  0.845-  62 1.39  79 1.41  30 1.47
  47  0.198  0.174  0.500-  63 1.39  80 1.41  31 1.47
  48  0.311  0.590  0.973-  64 1.39  78 1.41  32 1.47
  49  0.629  0.086  0.528-  88 1.09  33 1.39  53 1.40
  50  0.903  0.122  0.799-  99 1.08  34 1.39  56 1.40
  51  0.876  0.628  0.041-  93 1.08  35 1.39  55 1.40
  52  0.597  0.622  0.297-  90 1.08  36 1.39  61 1.40
  53  0.623  0.128  0.540-  98 1.08  37 1.39  49 1.40
  54  0.371  0.662  0.813-  96 1.09  38 1.39  64 1.40
  55  0.870  0.586  0.028-  86 1.09  39 1.39  51 1.40
  56  0.897  0.164  0.811-  87 1.09  40 1.39  50 1.40
  57  0.102  0.584  0.529-  95 1.09  41 1.39  58 1.40
  58  0.097  0.625  0.542-  91 1.08  42 1.39  57 1.40
  59  0.124  0.120  0.300-  92 1.08  43 1.39  63 1.40
  60  0.402  0.126  0.044-  85 1.08  44 1.39  62 1.40
  61  0.604  0.664  0.309-  89 1.09  45 1.39  52 1.40
  62  0.396  0.084  0.032- 100 1.09  46 1.39  60 1.40
  63  0.130  0.161  0.312-  94 1.09  47 1.39  59 1.40
  64  0.376  0.620  0.800-  97 1.08  48 1.39  54 1.40
  65  0.795  0.977  0.143-   2 1.39   1 1.40 133 1.42
  66  0.777  0.773  0.694-  13 1.39   3 1.40 134 1.42
  67  0.703  0.477  0.642-   7 1.39   4 1.40 135 1.42
  68  0.722  0.273  0.193-   5 1.39   8 1.40 136 1.42
  69  0.204  0.770  0.200-   6 1.39  10 1.40 137 1.42
  70  0.276  0.475  0.145-   9 1.39  16 1.40 138 1.42
  71  0.223  0.975  0.650-  11 1.39  14 1.40 139 1.42
  72  0.295  0.271  0.697-  12 1.39  15 1.40 140 1.42
  73  0.765  0.104  0.162-  33 1.41  34 1.41  76 1.42
  74  0.740  0.646  0.675-  45 1.41  35 1.41  75 1.42
  75  0.735  0.604  0.661-  39 1.41  36 1.41  74 1.42
  76  0.760  0.146  0.176-  40 1.41  37 1.41  73 1.42
  77  0.235  0.644  0.179-  38 1.41  42 1.41  78 1.42
  78  0.239  0.601  0.164-  41 1.41  48 1.41  77 1.42
  79  0.260  0.101  0.666-  46 1.41  43 1.41  80 1.42
  80  0.265  0.144  0.679-  47 1.41  44 1.41  79 1.42
  81  0.939  0.874  0.920- 122 1.99 127 2.00 117 2.00 119 2.00
  82  0.061  0.874  0.423- 118 1.99 129 2.00 126 2.00 130 2.00
  83  0.559  0.374  0.418- 128 1.99 125 2.00 120 2.00 124 2.00
  84  0.438  0.374  0.920- 123 1.99 131 2.00 121 2.00 132 2.00
  85  0.454  0.135  0.192-  60 1.08
  86  0.916  0.562  0.166-  55 1.09
  87  0.943  0.188  0.674-  56 1.09
  88  0.582  0.062  0.664-  49 1.09
  89  0.558  0.688  0.171-  61 1.09
  90  0.545  0.613  0.148-  52 1.08
  91  0.045  0.635  0.690-  58 1.08
  92  0.072  0.110  0.152-  59 1.08
  93  0.928  0.637  0.189-  51 1.08
  94  0.083  0.185  0.175-  63 1.09
  95  0.056  0.560  0.666-  57 1.09
  96  0.418  0.686  0.677-  54 1.09
  97  0.428  0.610  0.652-  64 1.08
  98  0.572  0.138  0.688-  53 1.08
  99  0.955  0.113  0.651-  50 1.08
 100  0.442  0.060  0.171-  62 1.09
 101  0.551  0.464  0.955-   7 1.08
 102  0.446  0.284  0.384-  12 1.08
 103  0.170  0.454  0.840-  16 1.09
 104  0.316  0.791  0.505-  10 1.09
 105  0.069  0.963  0.961-  11 1.08
 106  0.184  0.291  0.001-  15 1.09
 107  0.684  0.957  0.838-   1 1.09
 108  0.931  0.785  0.382-  13 1.08
 109  0.329  0.954  0.346-  14 1.09
 110  0.814  0.457  0.338-   4 1.09
 111  0.569  0.285  0.880-   5 1.08
 112  0.947  0.964  0.457-   2 1.08
 113  0.828  0.294  0.498-   8 1.09
 114  0.429  0.463  0.458-   9 1.08
 115  0.053  0.784  0.886-   6 1.08
 116  0.671  0.794  0.998-   3 1.09
 117  0.824  0.914  0.074-   1 1.36 118 1.38  81 2.00
 118  0.908  0.916  0.269-   2 1.34 117 1.38  82 1.99
 119  0.817  0.836  0.765-   3 1.36 129 1.38  81 2.00
 120  0.674  0.414  0.573-   4 1.36 123 1.38  83 2.00
 121  0.599  0.333  0.069-   5 1.34 124 1.38  84 2.00
 122  0.091  0.831  0.074-   6 1.34 126 1.38  81 1.99
 123  0.590  0.416  0.767-   7 1.34 120 1.38  84 1.99
 124  0.682  0.336  0.264-   8 1.36 121 1.38  83 2.00
 125  0.399  0.415  0.269-   9 1.34 132 1.38  83 2.00
 126  0.176  0.834  0.270-  10 1.36 122 1.38  82 2.00
 127  0.100  0.915  0.773-  11 1.34 130 1.38  81 2.00
 128  0.407  0.332  0.571-  12 1.34 131 1.38  83 1.99
 129  0.900  0.833  0.571-  13 1.34 119 1.38  82 2.00
 130  0.183  0.912  0.578-  14 1.36 127 1.38  82 2.00
 131  0.323  0.334  0.766-  15 1.36 128 1.38  84 2.00
 132  0.316  0.412  0.074-  16 1.36 125 1.38  84 2.00
 133  0.767  0.020  0.131-  17 1.41  18 1.41  65 1.42
 134  0.745  0.731  0.706-  29 1.41  19 1.41  66 1.42
 135  0.731  0.520  0.631-  23 1.41  20 1.41  67 1.42
 136  0.755  0.231  0.206-  24 1.41  21 1.41  68 1.42
 137  0.233  0.728  0.211-  22 1.41  26 1.41  69 1.42
 138  0.243  0.517  0.133-  25 1.41  32 1.41  70 1.42
 139  0.255  0.017  0.637-  30 1.41  27 1.41  71 1.42
 140  0.267  0.228  0.709-  31 1.41  28 1.41  72 1.42
 141  0.635  0.003  0.477-  17 1.23
 142  0.918  0.036  0.804-  18 1.23
 143  0.895  0.714  0.035-  19 1.23
 144  0.581  0.536  0.302-  20 1.23
 145  0.605  0.214  0.535-  21 1.23
 146  0.365  0.745  0.866-  22 1.23
 147  0.863  0.503  0.978-  23 1.23
 148  0.887  0.247  0.861-  24 1.23
 149  0.111  0.500  0.477-  25 1.23
 150  0.081  0.712  0.538-  26 1.23
 151  0.106  0.034  0.306-  27 1.23
 152  0.418  0.212  0.038-  28 1.23
 153  0.613  0.748  0.360-  29 1.23
 154  0.387  0.000  0.983-  30 1.23
 155  0.135  0.245  0.363-  31 1.23
 156  0.394  0.534  0.805-  32 1.23
 

IMPORTANT INFORMATION: All symmetrisations will be switched off!
NOSYMM: (Re-)initialisation of all symmetry stuff for point group C_1.

 
 

Automatic generation of k-mesh.
 generate k-points for:    3    1    4
Space group operators:
 irot       det(A)        alpha          n_x          n_y          n_z        tau_x        tau_y        tau_z
    1     1.000000     0.000000     1.000000     0.000000     0.000000     0.000000     0.000000     0.000000
 
 Subroutine IBZKPT returns following result:
 ===========================================
 
 Found      7 irreducible k-points:
 
 Following reciprocal coordinates:
            Coordinates               Weight
  0.000000  0.000000  0.000000      1.000000
  0.333333 -0.000000 -0.000000      2.000000
  0.000000  0.000000  0.250000      2.000000
  0.333333 -0.000000  0.250000      2.000000
 -0.333333 -0.000000  0.250000      2.000000
  0.000000  0.000000  0.500000      1.000000
  0.333333  0.000000  0.500000      2.000000
 
 Following cartesian coordinates:
            Coordinates               Weight
  0.000000  0.000000  0.000000      1.000000
  0.038980 -0.000019  0.000045      2.000000
  0.000057 -0.003890  0.042992      2.000000
  0.039037 -0.003909  0.043037      2.000000
 -0.038923 -0.003871  0.042948      2.000000
  0.000114 -0.007780  0.085985      1.000000
  0.039094 -0.007799  0.086029      2.000000
 


--------------------------------------------------------------------------------------------------------




 Dimension of arrays:
   k-points           NKPTS =      7   k-points in BZ     NKDIM =      7   number of bands    NBANDS=    384
   number of dos      NEDOS =    301   number of ions     NIONS =    156
   non local maximal  LDIM  =      6   non local SUM 2l+1 LMDIM =     18
   total plane-waves  NPLWV = 388800
   max r-space proj   IRMAX =   2480   max aug-charges    IRDMAX=   8675
   dimension x,y,z NGX =    54 NGY =  200 NGZ =   36
   dimension x,y,z NGXF=   108 NGYF=  400 NGZF=   72
   support grid    NGXF=   108 NGYF=  400 NGZF=   72
   ions per type =              80   4  32  24  16
   NGX,Y,Z   is equivalent  to a cutoff of  10.50, 10.08, 10.11 a.u.
   NGXF,Y,Z  is equivalent  to a cutoff of  21.00, 20.16, 20.23 a.u.

 SYSTEM =  flex_MOF                                
 POSCAR =  FeH_8                                   

 Startparameter for this run:
   NWRITE =      2    write-flag & timer
   PREC   = normal    normal or accurate (medium, high low for compatibility)
   ISTART =      0    job   : 0-new  1-cont  2-samecut
   ICHARG =      2    charge: 1-file 2-atom 10-const
   ISPIN  =      2    spin polarized calculation?
   LNONCOLLINEAR =      F non collinear calculations
   LSORBIT =      F    spin-orbit coupling
   INIWAV =      1    electr: 0-lowe 1-rand  2-diag
   LASPH  =      F    aspherical Exc in radial PAW
   METAGGA=      F    non-selfconsistent MetaGGA calc.

 Electronic Relaxation 1
   ENCUT  =  600.0 eV  44.10 Ry    6.64 a.u.  17.08 65.89 11.82*2*pi/ulx,y,z
   ENINI  =  600.0     initial cutoff
   ENAUG  =  644.9 eV  augmentation charge cutoff
   NELM   =    200;   NELMIN=  3; NELMDL= -8     # of ELM steps 
   EDIFF  = 0.1E-05   stopping-criterion for ELM
   LREAL  =      T    real-space projection
   NLSPLINE    = F    spline interpolate recip. space projectors
   LCOMPAT=      F    compatible to vasp.4.4
   GGA_COMPAT  = T    GGA compatible to vasp.4.4-vasp.4.6
   LMAXPAW     = -100 max onsite density
   LMAXMIX     =    2 max onsite mixed and CHGCAR
   VOSKOWN=      0    Vosko Wilk Nusair interpolation
   ROPT   =   -0.00050  -0.00050  -0.00050  -0.00050
   ROPT   =   -0.00050
 Ionic relaxation
   EDIFFG = -.1E-01   stopping-criterion for IOM
   NSW    =   1000    number of steps for IOM
   NBLOCK =      1;   KBLOCK =   1000    inner block; outer block 
   IBRION =      2    ionic relax: 0-MD 1-quasi-New 2-CG
   NFREE  =      1    steps in history (QN), initial steepest desc. (CG)
   ISIF   =      4    stress and relaxation
   IWAVPR =     11    prediction:  0-non 1-charg 2-wave 3-comb
   ISYM   =      0    0-nonsym 1-usesym 2-fastsym
   LCORR  =      T    Harris-Foulkes like correction to forces

   POTIM  = 0.5000    time-step for ionic-motion
   TEIN   =    0.0    initial temperature
   TEBEG  =    0.0;   TEEND  =   0.0 temperature during run
   SMASS  =  -3.00    Nose mass-parameter (am)
   estimated Nose-frequenzy (Omega)   =  0.10E-29 period in steps =****** mass=  -0.167E-26a.u.
   SCALEE = 1.0000    scale energy and forces
   NPACO  =    256;   APACO  = 16.0  distance and # of slots for P.C.
   PSTRESS=    0.0 pullay stress

  Mass of Ions in am
   POMASS =  12.01 55.85  1.00 14.00 16.00
  Ionic Valenz
   ZVAL   =   4.00  8.00  1.00  5.00  6.00
  Atomic Wigner-Seitz radii
   RWIGS  =  -1.00 -1.00 -1.00 -1.00 -1.00
  virtual crystal weights 
   VCA    =   1.00  1.00  1.00  1.00  1.00
   NELECT =     600.0000    total number of electrons
   NUPDOWN=      -1.0000    fix difference up-down

 DOS related values:
   EMIN   =  10.00;   EMAX   =-10.00  energy-range for DOS
   EFERMI =   0.00
   ISMEAR =     0;   SIGMA  =   0.05  broadening in eV -4-tet -1-fermi 0-gaus

 Electronic relaxation 2 (details)
   IALGO  =     38    algorithm
   LDIAG  =      T    sub-space diagonalisation (order eigenvalues)
   LSUBROT=      F    optimize rotation matrix (better conditioning)
   TURBO    =      0    0=normal 1=particle mesh
   IRESTART =      0    0=no restart 2=restart with 2 vectors
   NREBOOT  =      0    no. of reboots
   NMIN     =      0    reboot dimension
   EREF     =   0.00    reference energy to select bands
   IMIX   =      4    mixing-type and parameters
     AMIX     =   0.40;   BMIX     =  1.00
     AMIX_MAG =   1.60;   BMIX_MAG =  1.00
     AMIN     =   0.10
     WC   =   100.;   INIMIX=   1;  MIXPRE=   1;  MAXMIX= -45

 Intra band minimization:
   WEIMIN = 0.0010     energy-eigenvalue tresh-hold
   EBREAK =  0.65E-09  absolut break condition
   DEPER  =   0.30     relativ break condition  

   TIME   =   0.40     timestep for ELM

  volume/ion in A,a.u.               =      10.47        70.68
  Fermi-wavevector in a.u.,A,eV,Ry     =   1.172345  2.215410 18.699740  1.374392
  Thomas-Fermi vector in A             =   2.308775
 
 Write flags
   LWAVE        =      T    write WAVECAR
   LDOWNSAMPLE  =      F    k-point downsampling of WAVECAR
   LCHARG       =      T    write CHGCAR
   LVTOT        =      F    write LOCPOT, total local potential
   LVHAR        =      F    write LOCPOT, Hartree potential only
   LELF         =      F    write electronic localiz. function (ELF)
   LORBIT       =      0    0 simple, 1 ext, 2 COOP (PROOUT), +10 PAW based schemes


 Dipole corrections
   LMONO  =      F    monopole corrections only (constant potential shift)
   LDIPOL =      F    correct potential (dipole corrections)
   IDIPOL =      0    1-x, 2-y, 3-z, 4-all directions 
   EPSILON=  1.0000000 bulk dielectric constant

 Exchange correlation treatment:
   GGA     =    PE    GGA type
   LEXCH   =     8    internal setting for exchange type
   VOSKOWN=      0    Vosko Wilk Nusair interpolation
   LHFCALC =     F    Hartree Fock is set to
   LHFONE  =     F    Hartree Fock one center treatment
   AEXX    =    0.0000 exact exchange contribution

 Linear response parameters
   LEPSILON=     F    determine dielectric tensor
   LRPA    =     F    only Hartree local field effects (RPA)
   LNABLA  =     F    use nabla operator in PAW spheres
   LVEL    =     F    velocity operator in full k-point grid
   LINTERFAST=   F  fast interpolation
   KINTER  =     0    interpolate to denser k-point grid
   CSHIFT  =0.1000    complex shift for real part using Kramers Kronig
   OMEGAMAX=  -1.0    maximum frequency
   DEG_THRESHOLD= 0.2000000E-02 threshold for treating states as degnerate
   RTIME   =   -0.100 relaxation time in fs
  (WPLASMAI=    0.000 imaginary part of plasma frequency in eV, 0.658/RTIME)
   DFIELD  = 0.0000000 0.0000000 0.0000000 field for delta impulse in time
 
 Orbital magnetization related:
   ORBITALMAG=     F  switch on orbital magnetization
   LCHIMAG   =     F  perturbation theory with respect to B field
   DQ        =  0.001000  dq finite difference perturbation B field
   LLRAUG    =     F  two centre corrections for induced B field



--------------------------------------------------------------------------------------------------------


 conjugate gradient relaxation of ions
 charge density and potential will be updated during run
 spin polarized calculation
 Variant of blocked Davidson
 Davidson routine will perform the subspace rotation
 perform sub-space diagonalisation
    after iterative eigenvector-optimisation
 modified Broyden-mixing scheme, WC =      100.0
 initial mixing is a Kerker type mixing with AMIX =  0.4000 and BMIX =      1.0000
 Hartree-type preconditioning will be used
 using additional bands           84
 real space projection scheme for non local part
 use partial core corrections
 calculate Harris-corrections to forces 
   (improved forces if not selfconsistent)
 use gradient corrections 
 use of overlap-Matrix (Vanderbilt PP)
 Gauss-broadening in eV      SIGMA  =   0.05


--------------------------------------------------------------------------------------------------------


  energy-cutoff  :      600.00
  volume of cell :     1633.84
      direct lattice vectors                 reciprocal lattice vectors
     8.551376736  0.003490810 -0.010979370     0.116940430 -0.000057760  0.000134175
     0.012817960 32.856762282  2.972770513    -0.000017192  0.030761765 -0.003610026
    -0.006402952  0.689735205  5.877404295     0.000227148 -0.015559301  0.171969325

  length of vectors
     8.551384497 32.990973864  5.917740861     0.116940521  0.030972871  0.172671921


 
 k-points in units of 2pi/SCALE and weight: read from INCAR                         
   0.00000000  0.00000000  0.00000000       0.083
   0.03898014 -0.00001925  0.00004473       0.167
   0.00005679 -0.00388983  0.04299233       0.167
   0.03903693 -0.00390908  0.04303706       0.167
  -0.03892336 -0.00387057  0.04294761       0.167
   0.00011357 -0.00777965  0.08598466       0.083
   0.03909372 -0.00779890  0.08602939       0.167
 
 k-points in reciprocal lattice and weights: read from INCAR                         
   0.00000000  0.00000000  0.00000000       0.083
   0.33333333 -0.00000000 -0.00000000       0.167
   0.00000000  0.00000000  0.25000000       0.167
   0.33333333 -0.00000000  0.25000000       0.167
  -0.33333333 -0.00000000  0.25000000       0.167
   0.00000000  0.00000000  0.50000000       0.083
   0.33333333  0.00000000  0.50000000       0.167
 
 position of ions in fractional coordinates (direct lattice) 
   0.75450640  0.95099987  0.99498090
   0.89060730  0.95422141  0.31353647
   0.74133120  0.79960449  0.84195303
   0.74398581  0.45099537  0.49414763
   0.62331780  0.29505875  0.02379597
   0.10917229  0.79355274  0.02975275
   0.60785080  0.45428923  0.81174460
   0.75777279  0.29963320  0.34174392
   0.37484057  0.45287338  0.31430623
   0.24541438  0.79673411  0.34825244
   0.12377240  0.95274424  0.81806026
   0.38976617  0.29359821  0.52695583
   0.87609721  0.79502639  0.52515323
   0.25874231  0.94805322  0.50157720
   0.25384153  0.29687881  0.84476996
   0.24018254  0.44838961  0.99635574
   0.69616376  0.03004784  0.32767576
   0.84654875  0.04816298  0.95735024
   0.82256952  0.70201371  0.88088621
   0.65240549  0.54826959  0.45595128
   0.67722006  0.20209511  0.38065117
   0.30365665  0.71781679  0.01469812
   0.80205657  0.52995461  0.82790272
   0.82721268  0.22046836  0.01019955
   0.17124480  0.52742217  0.32858556
   0.15294936  0.69956473  0.38472300
   0.17783773  0.04561970  0.46101576
   0.34640528  0.19970789  0.88385411
   0.67293426  0.72054875  0.50913404
   0.32733312  0.02729312  0.83305504
   0.19631698  0.21775509  0.51207952
   0.32184176  0.54593071  0.95866510
   0.69808061  0.07406514  0.34072764
   0.83710860  0.09211304  0.97113443
   0.81189800  0.65811450  0.86683082
   0.66221846  0.59221885  0.46984809
   0.68781392  0.15818727  0.36688914
   0.30139867  0.67384976  0.00071241
   0.80066717  0.57398840  0.84081027
   0.82680429  0.17637298  0.99745785
   0.17208191  0.57146494  0.34231300
   0.16222847  0.65565284  0.37013315
   0.18826084  0.08954477  0.47454470
   0.33712375  0.15572512  0.87047930
   0.67331527  0.67646775  0.49616089
   0.32680557  0.07140834  0.84530630
   0.19849076  0.17371517  0.49952716
   0.31127205  0.58979792  0.97307384
   0.62886371  0.08628326  0.52762310
   0.90262022  0.12228034  0.79854364
   0.87627024  0.62791193  0.04072334
   0.59720691  0.62246514  0.29657759
   0.62302607  0.12806286  0.54020144
   0.37057062  0.66171898  0.81349229
   0.86976258  0.58612356  0.02836666
   0.89657900  0.16408659  0.81100086
   0.10248592  0.58365901  0.52918750
   0.09667457  0.62542904  0.54237496
   0.12358213  0.11963711  0.30040848
   0.40227546  0.12557325  0.04409574
   0.60375171  0.66427561  0.30894116
   0.39610561  0.08373047  0.03230844
   0.12950122  0.16144562  0.31230426
   0.37619972  0.61998166  0.80020465
   0.79541047  0.97727626  0.14304361
   0.77741359  0.77301177  0.69350553
   0.70300180  0.47729561  0.64191206
   0.72209704  0.27303809  0.19300777
   0.20445145  0.77048874  0.20007243
   0.27622079  0.47495294  0.14512119
   0.22267804  0.97469549  0.64974589
   0.29488684  0.27057546  0.69709594
   0.76476344  0.10389118  0.16206356
   0.73964601  0.64648816  0.67509911
   0.73456812  0.60391047  0.66137923
   0.76006687  0.14648043  0.17576583
   0.23450323  0.64396503  0.17889033
   0.23896090  0.60141154  0.16441090
   0.26036178  0.10129397  0.66600564
   0.26501542  0.14390552  0.67913011
   0.93924665  0.87421841  0.92030201
   0.06058887  0.87352628  0.42310325
   0.55931858  0.37427542  0.41836885
   0.43824208  0.37363039  0.92001346
   0.45388757  0.13520316  0.19219464
   0.91592910  0.56216488  0.16601659
   0.94320032  0.18800344  0.67389568
   0.58198620  0.06238437  0.66449920
   0.55770375  0.68824678  0.17114983
   0.54524069  0.61292468  0.14847433
   0.04487762  0.63496207  0.69033306
   0.07219136  0.10995119  0.15241742
   0.92768194  0.63747819  0.18902949
   0.08295897  0.18530841  0.17450053
   0.05571301  0.55970333  0.66593052
   0.41764580  0.68565040  0.67698475
   0.42762312  0.61040934  0.65216784
   0.57160244  0.13770460  0.68803502
   0.95462854  0.11267749  0.65091015
   0.44211481  0.05983815  0.17050874
   0.55134414  0.46410083  0.95515762
   0.44625238  0.28378072  0.38355601
   0.16964807  0.45394897  0.84006629
   0.31572071  0.79052718  0.50470157
   0.06905412  0.96316274  0.96098851
   0.18372575  0.29070784  0.00087500
   0.68426066  0.95718963  0.83848491
   0.93076294  0.78466351  0.38201160
   0.32942535  0.95350634  0.34594665
   0.81426491  0.45713916  0.33822660
   0.56884339  0.28470960  0.88017704
   0.94711459  0.96399666  0.45738712
   0.82825144  0.29412431  0.49807197
   0.42944400  0.46319075  0.45790554
   0.05266091  0.78378279  0.88591594
   0.67070388  0.79410134  0.99761295
   0.82425999  0.91383648  0.07386173
   0.90831309  0.91626622  0.26918582
   0.81705625  0.83593292  0.76514510
   0.67429781  0.41386553  0.57253543
   0.59881189  0.33269727  0.06932059
   0.09149398  0.83149624  0.07422774
   0.59026734  0.41633648  0.76730477
   0.68177590  0.33596586  0.26428879
   0.39893996  0.41521899  0.26878972
   0.17559336  0.83390136  0.26956562
   0.09958811  0.91509679  0.77254082
   0.40717861  0.33157398  0.57114419
   0.90021371  0.83265805  0.57092291
   0.18282751  0.91175690  0.57848410
   0.32326755  0.33403496  0.76604921
   0.31586434  0.41200539  0.07383112
   0.76700541  0.01995424  0.13136070
   0.74470471  0.73050428  0.70576819
   0.73149999  0.51994883  0.63071273
   0.75512043  0.23051193  0.20594616
   0.23285447  0.72781937  0.21131872
   0.24342512  0.51747446  0.13263676
   0.25546135  0.01721593  0.63680157
   0.26686499  0.22788973  0.70891565
   0.63496962  0.00318820  0.47657729
   0.91830658  0.03591452  0.80392122
   0.89469314  0.71392317  0.03547830
   0.58080647  0.53612789  0.30166835
   0.60497043  0.21408833  0.53450818
   0.36511234  0.74473387  0.86639471
   0.86271896  0.50301178  0.97753566
   0.88718135  0.24747082  0.86090676
   0.11081088  0.50037076  0.47715681
   0.08110039  0.71175478  0.53827686
   0.10608342  0.03363595  0.30633443
   0.41792589  0.21197620  0.03780171
   0.61300011  0.74761385  0.35954273
   0.38740373  0.00029899  0.98289704
   0.13506066  0.24459649  0.36250694
   0.39439825  0.53397574  0.80497749
 
 position of ions in cartesian coordinates  (Angst):
   6.45788754 31.93568399  8.66672537
   7.62614213 31.57199204  4.66968354
   6.34426072 26.85572704  7.31739964
   6.36471976 15.16167574  4.23684265
   5.33385499  9.71326411  1.01015684
   0.94355463 26.09447634  2.53272049
   5.19858671 15.48848382  6.11477502
   6.48165312 10.08333491  2.89098807
   3.20919535 15.09804957  3.18947793
   2.10661345 26.41916199  4.41263355
   1.06539867 31.86876793  7.63900190
   3.33342660 10.01150707  3.96565315
   7.49866541 26.48726805  5.44034987
   2.22154349 31.49681796  5.76347582
   2.16909090 10.33803028  5.84482013
   2.05325921 15.42069090  7.18630787
   5.95144561  1.21571445  2.00756479
   7.23364481  2.24575301  5.76061731
   7.03745999 23.67634737  7.25521875
   5.58307340 18.33112672  4.30252667
   5.79131703  6.90510357  2.83058778
   2.60578924 23.59633332  2.21695740
   6.86017981 17.98642609  6.43254639
   7.07656789  7.25379925  0.70626646
   1.46903539 17.55661961  3.49725507
   1.31443121 23.25132281  4.33913870
   1.51839028  1.81751522  2.84324035
   2.95914259  7.17258904  5.78465035
   5.76049036 24.02841566  5.12702427
   2.79416466  1.47249371  4.97374357
   1.67829277  7.50861172  3.65487886
   2.75304954 18.59986426  7.25385546
   5.96831795  2.67098949  2.21510830
   7.15339356  3.69928419  5.97238968
   6.94573109 22.22422945  7.04222445
   5.66746212 19.78477626  4.51474717
   5.88143444  5.45297880  2.61905846
   2.58600638 22.14206482  2.00407862
   6.84878034 19.44213186  6.63932685
   7.06618901  6.48591316  6.37770169
   1.47667041 19.01319381  3.70885667
   1.39331095 21.79848960  4.12274644
   1.60799866  3.27011849  3.05322014
   2.87929467  5.71820014  5.57539240
   5.76326659 22.57111001  4.91972897
   2.79014043  2.93042502  5.17689935
   1.69639746  6.05295237  3.45015909
   2.66313400 20.05109983  7.46906466
   5.37537813  3.20110396  3.35065008
   7.71509991  4.57167076  5.04696500
   7.50110471 20.66230020  2.09636469
   5.11302100 20.65883383  3.58699546
   5.32591323  4.58250180  3.54884335
   3.17216210 22.30433122  6.74429310
   7.44499875 19.28072400  1.89958373
   7.66389529  5.95385973  5.24452786
   0.88048867 19.54250250  4.84420794
   0.83124456 20.92400584  5.04595248
   1.05640732  4.13852194  2.11991892
   3.44133624  4.15774920  0.62805223
   5.16944481 22.04114108  3.78388223
   3.38811468  2.77477902  0.43445225
   1.10748342  5.52043952  2.31405734
   3.21984872 20.92383247  6.54205902
   6.81346539 32.21157261  3.73721010
   6.65342441 25.87971287  6.36546346
   6.01364108 16.12759168  5.18394847
   6.17718784  9.10679248  1.93813610
   1.75693637 25.45447610  3.46414805
   2.36722672 15.70647529  2.26182926
   1.91253716 32.47426783  6.71392041
   2.52069322  9.37207443  4.89823571
   6.54007432  3.52797837  1.25296106
   6.32895574 21.70972938  5.88157050
   6.28507483 20.30128346  5.67441525
   6.50037035  4.93675776  1.46015448
   2.01243436 21.28281156  2.96319633
   2.05010081 19.87467017  2.75154416
   2.22348566  3.78846824  4.21264951
   2.26374283  5.19761447  4.41641058
   8.03716496 29.36202977  7.99752538
   0.52660593 28.99328592  5.08287676
   4.78506255 12.58799477  3.56541688
   3.74647153 12.91238024  6.51319682
   3.88186599  4.57648595  1.52655017
   7.83859764 18.58862275  2.63687747
   8.06375620  6.64528637  4.50929267
   4.97332815  2.51010854  4.08459505
   4.77686095 22.73355574  3.04579326
   4.66946429 20.24303184  2.68874169
   0.38748421 21.33910159  5.94447031
   0.61776890  3.71801968  1.22188585
   7.93991859 21.07908785  2.99589373
   0.71067140  6.20928313  1.57557872
   0.47933324 18.84954947  5.57720076
   3.57590055 22.99665046  6.01260891
   3.66041484 20.50739048  5.64296591
   4.88534742  5.00108457  4.44694831
   8.16066482  4.15450561  4.15014523
   3.78036556  2.08523703  1.17517977
   4.71458448 15.90958115  6.98745937
   3.81725383  9.59022541  3.09302914
   1.45116436 15.49530894  6.28503274
   2.70674813 26.32337606  5.31292463
   0.59670039 32.30947791  8.51062163
   1.57482876  9.55296330  0.86733322
   5.85827112 32.03087347  7.76610716
   7.96691637 26.04823826  4.56764194
   2.82704716 31.56889259  4.86420696
   6.96677992 15.25624210  3.33792418
   4.86240782  9.96371038  6.01328708
   8.10856150 31.99259127  5.54359112
   7.08327100 10.01040148  3.79264073
   3.67534265 15.53628097  4.06354076
   0.45469732 26.36379597  7.53631430
   5.73923268 26.78202908  8.21669176
   7.05979830 30.07953025  3.14169151
   7.77734848 30.29437900  4.29599040
   6.99277156 27.99664883  6.97313305
   5.76781357 13.99553293  4.58794607
   5.12448667 10.98125829  1.38988320
   0.79258229 27.37179123  2.90710938
   5.04802195 14.21076636  5.74095242
   5.83273671 11.22341953  2.54459599
   3.41508709 13.82953793  2.80975653
   1.51052788 27.58584074  4.06141564
   0.85839854 30.60031395  7.25981409
   3.48253083 11.28980699  4.33806808
   7.70508392 27.75537586  5.82096227
   1.57140977 30.35701891  6.10842162
   2.76375932 11.50480677  5.49184090
   2.70588331 13.58918974  1.65526484
   6.55836687  0.74891339  0.82295806
   6.37309511 24.49139821  6.31153017
   6.25795830 17.52141344  5.24461083
   6.45895530  7.71855985  1.88739715
   1.99920237 24.06035482  3.40308892
   2.08740363 17.09486941  2.31522005
   2.18068948  1.00577595  3.79111451
   2.28044500  7.97761419  4.84111770
   5.42685377  0.43568256  2.80354360
   7.84809838  1.73773341  4.82165323
   7.65978197 23.48479770  2.32102688
   4.97163540 17.82552544  3.36043516
   5.17265180  7.40503036  3.77131396
   3.12621168 25.06840109  7.30206615
   7.37762333 17.20459091  7.23123875
   7.58428171  8.72798462  5.78583035
   0.95094409 16.77006176  4.29071427
   0.69919668 23.75750909  5.27866394
   0.90562897  1.31682836  1.89927854
   3.57631681  6.99238374  0.84774399
   5.24927559 24.81429975  4.32893205
   3.30654567  0.68911499  5.77351870
   1.15576872  8.28715395  2.85624618
   3.37433827 18.10131212  6.31423527
 


--------------------------------------------------------------------------------------------------------


 k-point  1 :   0.0000 0.0000 0.0000  plane waves:   54485
 k-point  2 :   0.3333-0.0000-0.0000  plane waves:   54552
 k-point  3 :   0.0000 0.0000 0.2500  plane waves:   54479
 k-point  4 :   0.3333-0.0000 0.2500  plane waves:   54533
 k-point  5 :  -0.3333-0.0000 0.2500  plane waves:   54540
 k-point  6 :   0.0000 0.0000 0.5000  plane waves:   54528
 k-point  7 :   0.3333 0.0000 0.5000  plane waves:   54578

 maximum and minimum number of plane-waves per node :     13684    13577

 maximum number of plane-waves:     54578
 maximum index in each direction: 
   IXMAX=   17   IYMAX=   65   IZMAX=   11
   IXMIN=  -17   IYMIN=  -65   IZMIN=  -12


 real space projection operators:
  total allocation   :      12202.26 KBytes
  max/ min on nodes  :       3125.09       2977.13


 parallel 3D FFT for wavefunctions:
    minimum data exchange during FFTs selected (reduces bandwidth)
 parallel 3D FFT for charge:
    minimum data exchange during FFTs selected (reduces bandwidth)


 total amount of memory used by VASP MPI-rank0    94477. kBytes
=======================================================================

   base      :      30000. kBytes
   nonlr-proj:      10332. kBytes
   fftplans  :       4125. kBytes
   grid      :      11219. kBytes
   one-center:       1213. kBytes
   wavefun   :      37588. kBytes
 
     INWAV:  cpu time    0.0001: real time    0.0001
 Broyden mixing: mesh for mixing (old mesh)
   NGX = 35   NGY =131   NGZ = 23
  (NGX  =108   NGY  =400   NGZ  = 72)
  gives a total of 105455 points

 initial charge density was supplied:
 charge density of overlapping atoms calculated
 number of electron     600.0000000 magnetization       0.0000000
 keeping initial charge density in first step


--------------------------------------------------------------------------------------------------------


 Maximum index for non-local projection operator          696
 Maximum index for augmentation-charges          361 (set IRDMAX)


--------------------------------------------------------------------------------------------------------


 First call to EWALD:  gamma=   0.150
 Maximum number of real-space cells 4x 1x 5
 Maximum number of reciprocal cells 2x 7x 2

    FEWALD:  cpu time    0.0149: real time    0.0151


--------------------------------------- Iteration      1(   1)  ---------------------------------------


    POTLOK:  cpu time    0.1939: real time    0.2371
    SETDIJ:  cpu time    0.0615: real time    0.0625
     EDDAV:  cpu time   27.3816: real time   27.5227
       DOS:  cpu time    0.0068: real time    0.0069
    --------------------------------------------
      LOOP:  cpu time   27.6439: real time   27.8294

 eigenvalue-minimisations  : 10752
 total energy-change (2. order) : 0.4541810E+04  (-0.3162531E+05)
 number of electron     600.0000000 magnetization       0.0000000
 augmentation part      600.0000000 magnetization       0.0000000

 Free energy of the ion-electron system (eV)
  ---------------------------------------------------
  alpha Z        PSCENC =      1084.87426695
  Ewald energy   TEWEN  =     -9494.83779896
  -Hartree energ DENC   =    -16933.35111179
  -exchange      EXHF   =         0.00000000
  -V(xc)+E(xc)   XCENC  =      2075.64171232
  PAW double counting   =     21424.79691592   -21559.01982888
  entropy T*S    EENTRO =        -0.03170644
  eigenvalues    EBANDS =       128.13294239
  atomic energy  EATOM  =     27815.60422923
  Solvation  Ediel_sol  =         0.00000000
  ---------------------------------------------------
  free energy    TOTEN  =      4541.80962073 eV

  energy without entropy =     4541.84132717  energy(sigma->0) =     4541.82547395


--------------------------------------------------------------------------------------------------------




--------------------------------------- Iteration      1(   2)  ---------------------------------------


     EDDAV:  cpu time   30.9063: real time   30.9452
       DOS:  cpu time    0.0047: real time    0.0047
    --------------------------------------------
      LOOP:  cpu time   30.9110: real time   30.9499

 eigenvalue-minimisations  : 12704
 total energy-change (2. order) :-0.5278262E+04  (-0.5073127E+04)
 number of electron     600.0000000 magnetization       0.0000000
 augmentation part      600.0000000 magnetization       0.0000000

 Free energy of the ion-electron system (eV)
  ---------------------------------------------------
  alpha Z        PSCENC =      1084.87426695
  Ewald energy   TEWEN  =     -9494.83779896
  -Hartree energ DENC   =    -16933.35111179
  -exchange      EXHF   =         0.00000000
  -V(xc)+E(xc)   XCENC  =      2075.64171232
  PAW double counting   =     21424.79691592   -21559.01982888
  entropy T*S    EENTRO =        -0.02612175
  eigenvalues    EBANDS =     -5150.13459019
  atomic energy  EATOM  =     27815.60422923
  Solvation  Ediel_sol  =         0.00000000
  ---------------------------------------------------
  free energy    TOTEN  =      -736.45232716 eV

  energy without entropy =     -736.42620540  energy(sigma->0) =     -736.43926628


--------------------------------------------------------------------------------------------------------




--------------------------------------- Iteration      1(   3)  ---------------------------------------


     EDDAV:  cpu time   31.1334: real time   31.1691
       DOS:  cpu time    0.0048: real time    0.0048
    --------------------------------------------
      LOOP:  cpu time   31.1382: real time   31.1739

 eigenvalue-minimisations  : 13056
 total energy-change (2. order) :-0.5345107E+03  (-0.5226220E+03)
 number of electron     600.0000000 magnetization       0.0000000
 augmentation part      600.0000000 magnetization       0.0000000

 Free energy of the ion-electron system (eV)
  ---------------------------------------------------
  alpha Z        PSCENC =      1084.87426695
  Ewald energy   TEWEN  =     -9494.83779896
  -Hartree energ DENC   =    -16933.35111179
  -exchange      EXHF   =         0.00000000
  -V(xc)+E(xc)   XCENC  =      2075.64171232
  PAW double counting   =     21424.79691592   -21559.01982888
  entropy T*S    EENTRO =        -0.04362674
  eigenvalues    EBANDS =     -5684.62781064
  atomic energy  EATOM  =     27815.60422923
  Solvation  Ediel_sol  =         0.00000000
  ---------------------------------------------------
  free energy    TOTEN  =     -1270.96305260 eV

  energy without entropy =    -1270.91942586  energy(sigma->0) =    -1270.94123923


--------------------------------------------------------------------------------------------------------




--------------------------------------- Iteration      1(   4)  ---------------------------------------


     EDDAV:  cpu time   34.5700: real time   34.6097
       DOS:  cpu time    0.0048: real time    0.0048
    --------------------------------------------
      LOOP:  cpu time   34.5748: real time   34.6146

 eigenvalue-minimisations  : 15296
 total energy-change (2. order) :-0.2317604E+02  (-0.2295214E+02)
 number of electron     600.0000000 magnetization       0.0000000
 augmentation part      600.0000000 magnetization       0.0000000

 Free energy of the ion-electron system (eV)
  ---------------------------------------------------
  alpha Z        PSCENC =      1084.87426695
  Ewald energy   TEWEN  =     -9494.83779896
  -Hartree energ DENC   =    -16933.35111179
  -exchange      EXHF   =         0.00000000
  -V(xc)+E(xc)   XCENC  =      2075.64171232
  PAW double counting   =     21424.79691592   -21559.01982888
  entropy T*S    EENTRO =        -0.04239247
  eigenvalues    EBANDS =     -5707.80508845
  atomic energy  EATOM  =     27815.60422923
  Solvation  Ediel_sol  =         0.00000000
  ---------------------------------------------------
  free energy    TOTEN  =     -1294.13909613 eV

  energy without entropy =    -1294.09670367  energy(sigma->0) =    -1294.11789990


--------------------------------------------------------------------------------------------------------




--------------------------------------- Iteration      1(   5)  ---------------------------------------


     EDDAV:  cpu time   32.2757: real time   32.3150
       DOS:  cpu time    0.0051: real time    0.0051
    --------------------------------------------
      LOOP:  cpu time   32.2809: real time   32.3201

 eigenvalue-minimisations  : 13600
 total energy-change (2. order) :-0.5545764E+00  (-0.5529859E+00)
 number of electron     600.0000000 magnetization       0.0000000
 augmentation part      600.0000000 magnetization       0.0000000

 Free energy of the ion-electron system (eV)
  ---------------------------------------------------
  alpha Z        PSCENC =      1084.87426695
  Ewald energy   TEWEN  =     -9494.83779896
  -Hartree energ DENC   =    -16933.35111179
  -exchange      EXHF   =         0.00000000
  -V(xc)+E(xc)   XCENC  =      2075.64171232
  PAW double counting   =     21424.79691592   -21559.01982888
  entropy T*S    EENTRO =        -0.04247791
  eigenvalues    EBANDS =     -5708.35957939
  atomic energy  EATOM  =     27815.60422923
  Solvation  Ediel_sol  =         0.00000000
  ---------------------------------------------------
  free energy    TOTEN  =     -1294.69367252 eV

  energy without entropy =    -1294.65119461  energy(sigma->0) =    -1294.67243356


--------------------------------------------------------------------------------------------------------




--------------------------------------- Iteration      1(   6)  ---------------------------------------


     EDDAV:  cpu time   38.1688: real time   38.2065
       DOS:  cpu time    0.0049: real time    0.0048
    --------------------------------------------
      LOOP:  cpu time   38.1737: real time   38.2114

 eigenvalue-minimisations  : 16640
 total energy-change (2. order) :-0.3754174E-01  (-0.3752264E-01)
 number of electron     600.0000000 magnetization       0.0000000
 augmentation part      600.0000000 magnetization       0.0000000

 Free energy of the ion-electron system (eV)
  ---------------------------------------------------
  alpha Z        PSCENC =      1084.87426695
  Ewald energy   TEWEN  =     -9494.83779896
  -Hartree energ DENC   =    -16933.35111179
  -exchange      EXHF   =         0.00000000
  -V(xc)+E(xc)   XCENC  =      2075.64171232
  PAW double counting   =     21424.79691592   -21559.01982888
  entropy T*S    EENTRO =        -0.04248938
  eigenvalues    EBANDS =     -5708.39710965
  atomic energy  EATOM  =     27815.60422923
  Solvation  Ediel_sol  =         0.00000000
  ---------------------------------------------------
  free energy    TOTEN  =     -1294.73121426 eV

  energy without entropy =    -1294.68872487  energy(sigma->0) =    -1294.70996957


--------------------------------------------------------------------------------------------------------




--------------------------------------- Iteration      1(   7)  ---------------------------------------


     EDDAV:  cpu time   31.9795: real time   32.0107
       DOS:  cpu time    0.0050: real time    0.0050
    --------------------------------------------
      LOOP:  cpu time   31.9845: real time   32.0158

 eigenvalue-minimisations  : 13792
 total energy-change (2. order) :-0.6583264E-03  (-0.6580267E-03)
 number of electron     600.0000000 magnetization       0.0000000
 augmentation part      600.0000000 magnetization       0.0000000

 Free energy of the ion-electron system (eV)
  ---------------------------------------------------
  alpha Z        PSCENC =      1084.87426695
  Ewald energy   TEWEN  =     -9494.83779896
  -Hartree energ DENC   =    -16933.35111179
  -exchange      EXHF   =         0.00000000
  -V(xc)+E(xc)   XCENC  =      2075.64171232
  PAW double counting   =     21424.79691592   -21559.01982888
  entropy T*S    EENTRO =        -0.04249055
  eigenvalues    EBANDS =     -5708.39776682
  atomic energy  EATOM  =     27815.60422923
  Solvation  Ediel_sol  =         0.00000000
  ---------------------------------------------------
  free energy    TOTEN  =     -1294.73187259 eV

  energy without entropy =    -1294.68938204  energy(sigma->0) =    -1294.71062731


--------------------------------------------------------------------------------------------------------




--------------------------------------- Iteration      1(   8)  ---------------------------------------


     EDDAV:  cpu time   37.4374: real time   37.4756
       DOS:  cpu time    0.0061: real time    0.0076
    CHARGE:  cpu time    0.8372: real time    0.8392
    MIXING:  cpu time    0.0111: real time    0.0123
    --------------------------------------------
      LOOP:  cpu time   38.2918: real time   38.3348

 eigenvalue-minimisations  : 16608
 total energy-change (2. order) :-0.1881926E-04  (-0.1881725E-04)
 number of electron     600.0000020 magnetization       0.0002501
 augmentation part       31.8663110 magnetization      -0.0018936

 Broyden mixing:
  rms(total) = 0.97293E+01    rms(broyden)= 0.97288E+01
  rms(prec ) = 0.10411E+02
  weight for this iteration     100.00

 Free energy of the ion-electron system (eV)
  ---------------------------------------------------
  alpha Z        PSCENC =      1084.87426695
  Ewald energy   TEWEN  =     -9494.83779896
  -Hartree energ DENC   =    -16933.35111179
  -exchange      EXHF   =         0.00000000
  -V(xc)+E(xc)   XCENC  =      2075.64171232
  PAW double counting   =     21424.79691592   -21559.01982888
  entropy T*S    EENTRO =        -0.04249056
  eigenvalues    EBANDS =     -5708.39778562
  atomic energy  EATOM  =     27815.60422923
  Solvation  Ediel_sol  =         0.00000000
  ---------------------------------------------------
  free energy    TOTEN  =     -1294.73189140 eV

  energy without entropy =    -1294.68940084  energy(sigma->0) =    -1294.71064612


--------------------------------------------------------------------------------------------------------




--------------------------------------- Iteration      1(   9)  ---------------------------------------


    POTLOK:  cpu time    0.2258: real time    0.2570
    SETDIJ:  cpu time    0.0600: real time    0.0600
     EDDAV:  cpu time   42.4965: real time   42.5396
       DOS:  cpu time    0.0052: real time    0.0052
    CHARGE:  cpu time    0.8496: real time    0.8506
    MIXING:  cpu time    0.0081: real time    0.0198
    --------------------------------------------
      LOOP:  cpu time   43.6452: real time   43.7322

 eigenvalue-minimisations  : 18848
 total energy-change (2. order) :-0.4141852E+03  (-0.4738327E+03)
 number of electron     600.0000035 magnetization      -0.0000971
 augmentation part       55.5131720 magnetization       0.0954419

 Broyden mixing:
  rms(total) = 0.39296E+02    rms(broyden)= 0.39295E+02
  rms(prec ) = 0.39711E+02
  weight for this iteration     100.00

 eigenvalues of (default mixing * dielectric matrix)
  average eigenvalue GAMMA=   0.0600
  0.0600

 Free energy of the ion-electron system (eV)
  ---------------------------------------------------
  alpha Z        PSCENC =      1084.87426695
  Ewald energy   TEWEN  =     -9494.83779896
  -Hartree energ DENC   =    -17566.82705393
  -exchange      EXHF   =         0.00000000
  -V(xc)+E(xc)   XCENC  =      2112.98769176
  PAW double counting   =     32295.49859187   -32388.22563145
  entropy T*S    EENTRO =        -0.07554694
  eigenvalues    EBANDS =     -5567.91580987
  atomic energy  EATOM  =     27815.60422923
  Solvation  Ediel_sol  =         0.00000000
  ---------------------------------------------------
  free energy    TOTEN  =     -1708.91706134 eV

  energy without entropy =    -1708.84151440  energy(sigma->0) =    -1708.87928787


--------------------------------------------------------------------------------------------------------




--------------------------------------- Iteration      1(  10)  ---------------------------------------


    POTLOK:  cpu time    0.1483: real time    0.1779
    SETDIJ:  cpu time    0.0606: real time    0.0606
     EDDAV:  cpu time   32.6702: real time   32.7037
       DOS:  cpu time    0.0055: real time    0.0055
    CHARGE:  cpu time    0.9029: real time    0.9038
    MIXING:  cpu time    0.0055: real time    0.0098
    --------------------------------------------
      LOOP:  cpu time   33.7928: real time   33.8614

 eigenvalue-minimisations  : 13504
 total energy-change (2. order) : 0.8053962E+02  (-0.4243234E+02)
 number of electron     600.0000031 magnetization       0.0108835
 augmentation part       53.7894099 magnetization      -0.0755838

 Broyden mixing:
  rms(total) = 0.26242E+02    rms(broyden)= 0.26242E+02
  rms(prec ) = 0.26751E+02
  weight for this iteration     100.00

 eigenvalues of (default mixing * dielectric matrix)
  average eigenvalue GAMMA=   0.2976
  0.2976  0.2976

 Free energy of the ion-electron system (eV)
  ---------------------------------------------------
  alpha Z        PSCENC =      1084.87426695
  Ewald energy   TEWEN  =     -9494.83779896
  -Hartree energ DENC   =    -17583.51017712
  -exchange      EXHF   =         0.00000000
  -V(xc)+E(xc)   XCENC  =      2114.78134854
  PAW double counting   =     33093.55953547   -33195.72742599
  entropy T*S    EENTRO =        -0.07536847
  eigenvalues    EBANDS =     -5463.04605012
  atomic energy  EATOM  =     27815.60422923
  Solvation  Ediel_sol  =         0.00000000
  ---------------------------------------------------
  free energy    TOTEN  =     -1628.37744047 eV

  energy without entropy =    -1628.30207200  energy(sigma->0) =    -1628.33975623


--------------------------------------------------------------------------------------------------------




--------------------------------------- Iteration      1(  11)  ---------------------------------------


    POTLOK:  cpu time    0.1501: real time    0.1808
    SETDIJ:  cpu time    0.0595: real time    0.0603
     EDDAV:  cpu time   37.4181: real time   37.4570
       DOS:  cpu time    0.0050: real time    0.0050
    CHARGE:  cpu time    0.8478: real time    0.8487
    MIXING:  cpu time    0.0049: real time    0.0066
    --------------------------------------------
      LOOP:  cpu time   38.4854: real time   38.5584

 eigenvalue-minimisations  : 16000
 total energy-change (2. order) : 0.4362593E+03  (-0.6647480E+02)
 number of electron     600.0000034 magnetization       0.0118064
 augmentation part       51.6314256 magnetization      -0.0481121

 Broyden mixing:
  rms(total) = 0.89219E+01    rms(broyden)= 0.89216E+01
  rms(prec ) = 0.95503E+01
  weight for this iteration     100.00

 eigenvalues of (default mixing * dielectric matrix)
  average eigenvalue GAMMA=   0.3694
  0.4281  0.4281  0.2520

 Free energy of the ion-electron system (eV)
  ---------------------------------------------------
  alpha Z        PSCENC =      1084.87426695
  Ewald energy   TEWEN  =     -9494.83779896
  -Hartree energ DENC   =    -17648.24760415
  -exchange      EXHF   =         0.00000000
  -V(xc)+E(xc)   XCENC  =      2122.74638425
  PAW double counting   =     37479.30523990   -37627.61714713
  entropy T*S    EENTRO =        -0.05669166
  eigenvalues    EBANDS =     -4923.88905600
  atomic energy  EATOM  =     27815.60422923
  Solvation  Ediel_sol  =         0.00000000
  ---------------------------------------------------
  free energy    TOTEN  =     -1192.11817757 eV

  energy without entropy =    -1192.06148591  energy(sigma->0) =    -1192.08983174


--------------------------------------------------------------------------------------------------------




--------------------------------------- Iteration      1(  12)  ---------------------------------------


    POTLOK:  cpu time    0.1476: real time    0.1786
    SETDIJ:  cpu time    0.0603: real time    0.0603
     EDDAV:  cpu time   38.1743: real time   38.2141
       DOS:  cpu time    0.0050: real time    0.0050
    CHARGE:  cpu time    0.8462: real time    0.8473
    MIXING:  cpu time    0.0045: real time    0.0045
    --------------------------------------------
      LOOP:  cpu time   39.2380: real time   39.3098

 eigenvalue-minimisations  : 16256
 total energy-change (2. order) : 0.9742575E+01  (-0.7163842E+02)
 number of electron     600.0000032 magnetization       0.0779530
 augmentation part       34.6095240 magnetization      -1.2461571

 Broyden mixing:
  rms(total) = 0.57386E+01    rms(broyden)= 0.57382E+01
  rms(prec ) = 0.67885E+01
  weight for this iteration     100.00

 eigenvalues of (default mixing * dielectric matrix)
  average eigenvalue GAMMA=   0.4110
  0.7433  0.3418  0.3418  0.2170

 Free energy of the ion-electron system (eV)
  ---------------------------------------------------
  alpha Z        PSCENC =      1084.87426695
  Ewald energy   TEWEN  =     -9494.83779896
  -Hartree energ DENC   =    -17765.16480923
  -exchange      EXHF   =         0.00000000
  -V(xc)+E(xc)   XCENC  =      2128.94194200
  PAW double counting   =     39554.13232682   -39716.90578682
  entropy T*S    EENTRO =        -0.05429647
  eigenvalues    EBANDS =     -4788.96567577
  atomic energy  EATOM  =     27815.60422923
  Solvation  Ediel_sol  =         0.00000000
  ---------------------------------------------------
  free energy    TOTEN  =     -1182.37560224 eV

  energy without entropy =    -1182.32130578  energy(sigma->0) =    -1182.34845401


--------------------------------------------------------------------------------------------------------




--------------------------------------- Iteration      1(  13)  ---------------------------------------


    POTLOK:  cpu time    0.2225: real time    0.2536
    SETDIJ:  cpu time    0.0598: real time    0.0598
     EDDAV:  cpu time   35.2615: real time   35.2968
       DOS:  cpu time    0.0035: real time    0.0036
    CHARGE:  cpu time    0.8421: real time    0.8431
    MIXING:  cpu time    0.0051: real time    0.0051
    --------------------------------------------
      LOOP:  cpu time   36.3946: real time   36.4621

 eigenvalue-minimisations  : 15296
 total energy-change (2. order) :-0.7837768E+02  (-0.1443919E+03)
 number of electron     600.0000014 magnetization       0.1078802
 augmentation part       39.6061079 magnetization       0.2277501

 Broyden mixing:
  rms(total) = 0.81789E+01    rms(broyden)= 0.81787E+01
  rms(prec ) = 0.93103E+01
  weight for this iteration     100.00

 eigenvalues of (default mixing * dielectric matrix)
  average eigenvalue GAMMA=   0.4138
  0.9836  0.3555  0.3555  0.2354  0.1390

 Free energy of the ion-electron system (eV)
  ---------------------------------------------------
  alpha Z        PSCENC =      1084.87426695
  Ewald energy   TEWEN  =     -9494.83779896
  -Hartree energ DENC   =    -17883.52840902
  -exchange      EXHF   =         0.00000000
  -V(xc)+E(xc)   XCENC  =      2135.92159474
  PAW double counting   =     43854.04267386   -44017.60345540
  entropy T*S    EENTRO =        -0.00000000
  eigenvalues    EBANDS =     -4755.22638375
  atomic energy  EATOM  =     27815.60422923
  Solvation  Ediel_sol  =         0.00000000
  ---------------------------------------------------
  free energy    TOTEN  =     -1260.75328234 eV

  energy without entropy =    -1260.75328234  energy(sigma->0) =    -1260.75328234


--------------------------------------------------------------------------------------------------------




--------------------------------------- Iteration      1(  14)  ---------------------------------------


    POTLOK:  cpu time    0.1478: real time    0.1777
    SETDIJ:  cpu time    0.0601: real time    0.0601
     EDDAV:  cpu time   36.9755: real time   37.0202
       DOS:  cpu time    0.0054: real time    0.0054
    CHARGE:  cpu time    0.8463: real time    0.8472
    MIXING:  cpu time    0.0047: real time    0.0047
    --------------------------------------------
      LOOP:  cpu time   38.0398: real time   38.1153

 eigenvalue-minimisations  : 16384
 total energy-change (2. order) : 0.9346126E+02  (-0.4539906E+01)
 number of electron     600.0000042 magnetization       0.1639067
 augmentation part       45.2098917 magnetization      -0.2304655

 Broyden mixing:
  rms(total) = 0.33724E+01    rms(broyden)= 0.33719E+01
  rms(prec ) = 0.43086E+01
  weight for this iteration     100.00

 eigenvalues of (default mixing * dielectric matrix)
  average eigenvalue GAMMA=   0.4611
  0.9508  0.8033  0.3366  0.3366  0.2043  0.1347

 Free energy of the ion-electron system (eV)
  ---------------------------------------------------
  alpha Z        PSCENC =      1084.87426695
  Ewald energy   TEWEN  =     -9494.83779896
  -Hartree energ DENC   =    -17981.72215270
  -exchange      EXHF   =         0.00000000
  -V(xc)+E(xc)   XCENC  =      2142.87031803
  PAW double counting   =     47446.56086732   -47611.07729558
  entropy T*S    EENTRO =        -0.05796849
  eigenvalues    EBANDS =     -4569.50648772
  atomic energy  EATOM  =     27815.60422923
[...]
   80            fft3d_mpi                            48.352877                    10780   5
   81              fftbas_plan_mpi                      48.312414                  10780   6
   82                dfftw_execute                        23.432600                32340   7
   83                map_forward                          19.033728                21560   7
   84                  map_gather                            4.617809              10780   8
   85                  m_alltoallv_z                         4.997206              10780   8
   86                  map_scatter                           5.769146              10780   8
   87          pw_charge                             5.031601                      10780   4
   88          fft3d_mpi                             0.546201                        154   4
   89            fftbas_plan_mpi                       0.495032                      154   5
   90              dfftw_execute                         0.211527                    462   6
   91              map_backward                          0.200219                    308   6
   92                map_gather                            0.069747                  308   7
   93                m_alltoallv_z                         0.121222                  308   7
   94                map_scatter                           0.005400                  308   7
   95        depsum                                0.263820                           77   3
   96        fft3d_mpi                             0.657668                          154   3
   97          fftbas_plan_mpi                       0.643988                        154   4
   98            dfftw_execute                         0.080362                      462   5
   99            map_backward                          0.456617                      308   5
  100              map_gather                            0.016425                    154   6
  101              m_alltoallv_z                         0.420321                    154   6
  102              map_scatter                           0.017391                    154   6
  103      brmix                                 0.944444                             77   2
  104        brpre                                 0.007236                          154   3
  105        setg0                                 0.082325                           79   3
  106        broyd                                 0.698842                           77   3
  107          brsav                                 0.027040                       3550   4
  108          brget                                 0.088008                      15141   4
  109      force_and_stress                     25.592693                              1   2
  110        set_charge                            0.846243                            1   3
  111          soft_charge                           0.801583                          1   4
  112            fftwav_mpi                            0.683636                      140   5
  113              fft3d_mpi                             0.619441                    140   6
  114                fftbas_plan_mpi                       0.618861                  140   7
  115                  dfftw_execute                         0.303831                420   8
  116                  map_forward                           0.238099                280   8
  117                    map_gather                            0.060385              140   9
  118                    m_alltoallv_z                         0.055257              140   9
  119                    map_scatter                           0.075582              140   9
  120            pw_charge                             0.064551                      140   5
  121            fft3d_mpi                             0.007023                        2   5
  122              fftbas_plan_mpi                       0.006354                      2   6
  123                dfftw_execute                         0.002709                    6   7
  124                map_backward                          0.002588                    4   7
  125                  map_gather                            0.000950                  4   8
  126                  m_alltoallv_z                         0.001473                  4   8
  127                  map_scatter                           0.000061                  4   8
  128          depsum                                0.003500                          1   4
  129          fft3d_mpi                             0.006464                          2   4
  130            fftbas_plan_mpi                       0.006305                        2   5
  131              dfftw_execute                         0.001072                      6   6
  132              map_backward                          0.003841                      4   6
  133                map_gather                            0.000174                    2   7
  134                m_alltoallv_z                         0.003426                    2   7
  135                map_scatter                           0.000210                    2   7
  136        forloc                                0.078631                            1   3
  137        fornlr                                3.807046                            1   3
  138          rspher_all                            0.094995                          3   4
  139          phaser                                0.308870                         21   4
  140          rpro_isp                              3.318629                         21   4
  141            fftwav_mpi                            2.444911                      504   5
  142              fft3d_mpi                             2.210965                    504   6
  143                fftbas_plan_mpi                       2.209169                  504   7
  144                  dfftw_execute                         1.099552               1512   8
  145                  map_forward                           0.839391               1008   8
  146                    map_gather                            0.209885              504   9
  147                    m_alltoallv_z                         0.198486              504   9
  148                    map_scatter                           0.262856              504   9
  149            rpromu                                0.868554                      126   5
  150              crrexp_mul_wave                       0.436795                  78624   6
  151              rpromu_gemm                           0.282624                  19656   6
  152        fordep                                0.178976                            1   3
  153          setdij_                               0.177642                          6   4
  154        setdij_                               0.589905                           20   3
  155        set_dd_paw                            0.030273                            1   3
  156        strkin                                0.016223                            1   3
  157        strelo                                0.004358                            1   3
  158        strnlr                               11.383868                            1   3
  159          rspher_all                            0.289381                          9   4
  160          phaser                                0.930175                         63   4
  161          rpro_isp                              9.939232                         63   4
  162            fftwav_mpi                            7.309834                     1512   5
  163              fft3d_mpi                             6.631101                   1512   6
  164                fftbas_plan_mpi                       6.625746                 1512   7
  165                  dfftw_execute                         3.293703               4536   8
  166                  map_forward                           2.517238               3024   8
  167                    map_gather                            0.626415             1512   9
  168                    m_alltoallv_z                         0.595622             1512   9
  169                    map_scatter                           0.792435             1512   9
  170            rpromu                                2.615740                      378   5
  171              crrexp_mul_wave                       1.313740                 235872   6
  172              rpromu_gemm                           0.863920                  58968   6
  173        fft3d_mpi                             0.063040                           22   3
  174          fftbas_plan_mpi                       0.060960                         22   4
  175            dfftw_execute                         0.011923                       66   5
  176            map_forward                           0.016209                       20   5
  177              map_gather                            0.000704                     10   6
  178              m_alltoallv_z                         0.013796                     10   6
  179              map_scatter                           0.001548                     10   6
  180            map_backward                          0.017940                       24   5
  181              map_gather                            0.001244                     12   6
  182              m_alltoallv_z                         0.015189                     12   6
  183              map_scatter                           0.001328                     12   6
  184        forhar                                0.139668                            2   3
  185        strehar                               0.004036                            1   3
  186        chggra                                0.012596                            1   3
  187          fft3d_mpi                             0.009508                          3   4
  188            fftbas_plan_mpi                       0.009259                        3   5
  189              dfftw_execute                         0.001626                      9   6
  190              map_forward                           0.004105                      4   6
  191                map_gather                            0.000131                    2   7
  192                m_alltoallv_z                         0.003494                    2   7
  193                map_scatter                           0.000387                    2   7
  194              map_backward                          0.001373                      2   6
  195                map_gather                            0.000097                    1   7
  196                m_alltoallv_z                         0.001156                    1   7
  197                map_scatter                           0.000101                    1   7
  198        brmix                                 0.015380                            1   3
  199          brpre                                 0.000067                          2   4
  200          setg0                                 0.001000                          1   4
  201          broyd                                 0.011991                          1   4
  202            brget                                 0.001465                      261   5
  203            brsav                                 0.000275                       47   5
 
 Flat profile
 ============
 
             routine name                   CPU           calls
 ---------------------------------------------------------------
 eddav                                1268.208128          85
 dfftw_execute                         348.650973      480642
 redis_pw                              242.886502      147122
 total_time                            227.267722           1
 orth1                                 178.754109      159162
 redis_proj                             96.221263      185854
 fftbas_plan_mpi                        89.567281      160216
 map_scatter                            89.090528      160528
 m_alltoallv_z                          81.396824      160528
 crrexp_mul_work_add                    76.065452     8267688
 map_gather                             76.012364      160528
 racc0                                  72.345590       52998
 fftwav_mpi                             65.724005      104820
 rpro1                                  47.490667       38718
 map_forward                            43.482470      211886
 vhamil                                 38.199322       52998
 crrexp_mul_wave                        35.870228     6380712
 lincom                                 26.344530        1204
 phaser                                 18.798370        1281
 w1_copy                                10.166280      158994
 force_and_stress                        8.422449           1
 fftext_mpi                              8.421758       52998
 eccp                                    7.732247       14280
 pw_charge                               5.096152       10920
 kinhamil                                4.902658       52998
 soft_charge                             3.562618          78
 setdij_                                 3.147103         106
 overl                                   3.092504       91730
 apply_precond                           2.853085       38718
 set_charge                              2.704179          78
 set_dd_paw                              2.428203          80
 overl1                                  2.195308       52998
 setup_precond                           1.683419       14280
 rpromu_gemm                             1.268358       85176
 map_backward                            1.033750      108542
 fft3d_mpi                               0.905276      160214
 hamiltmu                                0.736887       52998
 rpromu                                  0.638242         546
 broyd                                   0.594044          78
 rspher_all                              0.438015          14
 raccmu_                                 0.339010       52998
 choleski                                0.303013          14
 depsum                                  0.267320          78
 w1_projall                              0.241026       38718
 orthch                                  0.235980           1
 strnlr                                  0.225079           1
 brmix                                   0.158363          78
 forhar                                  0.139668           2
 brget                                   0.089473       15402
 fornlr                                  0.084552           1
 setg0                                   0.083325          80
 forloc                                  0.078631           1
 truncate_high_frequency_w1              0.052338       67278
 brsav                                   0.027316        3597
 rpro_isp                                0.020509          91
 strkin                                  0.016223           1
 brpre                                   0.007303         156
 strelo                                  0.004358           1
 strehar                                 0.004036           1
 chggra                                  0.003088           1
 fordep                                  0.001334           1
 brgrid                                  0.000344           1
 redis_pw_over_bands                     0.000001           1
 ---------------------------------------------------------------
  summed up times    3196.78115391731     
 
 Accumulative profile
 ====================
 
             routine name                   CPU           calls
 ---------------------------------------------------------------
 total_time                           3196.781154           1
 eddav                                2862.985458          85
 fft3d_mpi                             730.091245      160214
 fftbas_plan_mpi                       729.234190      160216
 fftwav_mpi                            564.068863      104820
 hamiltmu                              427.453409       52998
 dfftw_execute                         348.650973      480642
 redis_pw                              242.886502      147122
 kinhamil                              237.571839       52998
 fftext_mpi                            232.669181       52998
 map_forward                           209.957469      211886
 orth1                                 178.754109      159162
 raccmu_                               150.945361       52998
 racc0                                 148.411042       52998
 redis_proj                             96.221263      185854
 map_scatter                            89.090528      160528
 w1_projall                             81.706160       38718
 rpro1                                  81.465134       38718
 m_alltoallv_z                          81.396824      160528
 map_backward                           81.058467      108542
 crrexp_mul_work_add                    76.065452     8267688
 map_gather                             76.012364      160528
 set_charge                             66.847115          78
 soft_charge                            63.211484          78
 vhamil                                 38.199322       52998
 crrexp_mul_wave                        35.870228     6380712
 lincom                                 26.344530        1204
 force_and_stress                       25.592693           1
 phaser                                 18.798370        1281
 rpro_isp                               14.434049          91
 strnlr                                 11.383868           1
 w1_copy                                10.166280      158994
 eccp                                    7.732247       14280
 pw_charge                               5.096152       10920
 fornlr                                  3.807046           1
 rpromu                                  3.802360         546
 setdij_                                 3.147103         106
 overl                                   3.092504       91730
 apply_precond                           2.853085       38718
 set_dd_paw                              2.428203          80
 overl1                                  2.195308       52998
 setup_precond                           1.683419       14280
 orthch                                  1.620011           1
 rpromu_gemm                             1.268358       85176
 brmix                                   0.959824          78
 broyd                                   0.710833          78
 rspher_all                              0.438015          14
 choleski                                0.303013          14
 depsum                                  0.267320          78
 fordep                                  0.178976           1
 forhar                                  0.139668           2
 brget                                   0.089473       15402
 setg0                                   0.083325          80
 forloc                                  0.078631           1
 truncate_high_frequency_w1              0.052338       67278
 brsav                                   0.027316        3597
 strkin                                  0.016223           1
 chggra                                  0.012596           1
 brpre                                   0.007303         156
 strelo                                  0.004358           1
 strehar                                 0.004036           1
 brgrid                                  0.000344           1
 redis_pw_over_bands                     0.000001           1
 ---------------------------------------------------------------
 
Profiling took   9.975839  5.767220  0.012298  0.011906 seconds
Profiling took  11.628643 seconds
