       N       E                     dE             d eps       ncg     rms          rms(c)
DAV:   1     0.451076032178E+04    0.45108E+04   -0.31911E+05 10752   0.162E+03
DAV:   2    -0.788876143917E+03   -0.52996E+04   -0.51244E+04 13440   0.357E+02
DAV:   3    -0.127714762934E+04   -0.48827E+03   -0.48265E+03 13184   0.118E+02
DAV:   4    -0.129073910810E+04   -0.13591E+02   -0.13482E+02 13440   0.222E+01
DAV:   5    -0.129126003656E+04   -0.52093E+00   -0.52061E+00 14400   0.407E+00    0.915E+01
DAV:   6    -0.159593803434E+04   -0.30468E+03   -0.37135E+03 18304   0.106E+02    0.251E+02
DAV:   7    -0.147440931587E+04    0.12153E+03   -0.29300E+02 13376   0.297E+01    0.165E+02
DAV:   8    -0.121463736755E+04    0.25977E+03   -0.30382E+02 15040   0.734E+01    0.638E+01
DAV:   9    -0.118656726708E+04    0.28070E+02   -0.97529E+02 16128   0.103E+02    0.482E+01
DAV:  10    -0.118430784222E+04    0.22594E+01   -0.10317E+03 14912   0.371E+01    0.718E+01
DAV:  11    -0.120729745940E+04   -0.22990E+02   -0.10252E+03 16576   0.346E+01    0.749E+01
DAV:  12    -0.114575412857E+04    0.61543E+02   -0.21996E+02 14784   0.201E+01    0.281E+01
DAV:  13    -0.115053764398E+04   -0.47835E+01   -0.70424E+01 15296   0.141E+01    0.349E+01
DAV:  14    -0.114938407792E+04    0.11536E+01   -0.68585E+01 15744   0.143E+01    0.259E+01
DAV:  15    -0.115171314836E+04   -0.23291E+01   -0.37374E+01 13440   0.949E+00    0.256E+01
DAV:  16    -0.115255489886E+04   -0.84175E+00   -0.35712E+01 15872   0.771E+00    0.216E+01
DAV:  17    -0.115555451216E+04   -0.29996E+01   -0.32652E+01 14592   0.909E+00    0.243E+01
DAV:  18    -0.115575360447E+04   -0.19909E+00   -0.23344E+01 14912   0.827E+00    0.177E+01
DAV:  19    -0.115813038682E+04   -0.23768E+01   -0.20111E+00 13120   0.325E+00    0.171E+01
DAV:  20    -0.115999456132E+04   -0.18642E+01   -0.16822E+00 13568   0.238E+00    0.170E+01
DAV:  21    -0.116016476665E+04   -0.17021E+00   -0.86666E-02 13312   0.835E-01    0.170E+01
DAV:  22    -0.116099042426E+04   -0.82566E+00   -0.24391E-01 13696   0.177E+00    0.157E+01
DAV:  23    -0.116492389902E+04   -0.39335E+01   -0.39375E+00 13632   0.684E+00    0.128E+01
DAV:  24    -0.116607955664E+04   -0.11557E+01   -0.20623E+00 13952   0.303E+00    0.126E+01
DAV:  25    -0.116599650262E+04    0.83054E-01   -0.37544E-01 13312   0.301E+00    0.839E+00
DAV:  26    -0.116615079857E+04   -0.15430E+00   -0.25760E-01 13696   0.148E+00    0.757E+00
DAV:  27    -0.116599037566E+04    0.16042E+00   -0.26720E-01 15680   0.282E+00    0.547E+00
DAV:  28    -0.116582065380E+04    0.16972E+00   -0.21254E-01 15552   0.261E+00    0.452E+00
DAV:  29    -0.116559880419E+04    0.22185E+00   -0.32368E-01 14464   0.305E+00    0.816E+00
DAV:  30    -0.116545597579E+04    0.14283E+00   -0.20671E-01 14464   0.232E+00    0.286E+00
DAV:  31    -0.116534403594E+04    0.11194E+00   -0.12393E-01 15872   0.215E+00    0.234E+00
DAV:  32    -0.116519706951E+04    0.14697E+00   -0.16366E-01 16384   0.227E+00    0.187E+00
DAV:  33    -0.116515465128E+04    0.42418E-01   -0.11470E-01 15296   0.104E+00    0.170E+00
DAV:  34    -0.116515534594E+04   -0.69466E-03   -0.26002E-02 12544   0.330E-01    0.153E+00
DAV:  35    -0.116512590894E+04    0.29437E-01   -0.78062E-03 15936   0.506E-01    0.129E+00
DAV:  36    -0.116508428699E+04    0.41622E-01   -0.56922E-02 16512   0.130E+00    0.103E+00
DAV:  37    -0.116507286194E+04    0.11425E-01   -0.31772E-02 15360   0.608E-01    0.906E-01
DAV:  38    -0.116506803163E+04    0.48303E-02   -0.18110E-02 14208   0.333E-01    0.627E-01
DAV:  39    -0.116507106390E+04   -0.30323E-02   -0.44101E-03 14528   0.287E-01    0.749E-01
DAV:  40    -0.116506959690E+04    0.14670E-02   -0.21314E-03 13952   0.157E-01    0.691E-01
DAV:  41    -0.116507094777E+04   -0.13509E-02   -0.13052E-03 13632   0.953E-02    0.653E-01
DAV:  42    -0.116506878936E+04    0.21584E-02   -0.67212E-03 15936   0.363E-01    0.536E-01
DAV:  43    -0.116506886254E+04   -0.73180E-04   -0.10961E-03 13056   0.806E-02    0.474E-01
DAV:  44    -0.116506876748E+04    0.95054E-04   -0.90097E-04 15552   0.124E-01    0.391E-01
DAV:  45    -0.116506894873E+04   -0.18125E-03   -0.10917E-03 15296   0.125E-01    0.294E-01
DAV:  46    -0.116506941556E+04   -0.46683E-03   -0.55993E-04 13760   0.839E-02    0.362E-01
DAV:  47    -0.116506904691E+04    0.36865E-03   -0.39135E-04 14336   0.925E-02    0.230E-01
DAV:  48    -0.116506924756E+04   -0.20065E-03   -0.35924E-04 14592   0.878E-02    0.188E-01
DAV:  49    -0.116506903134E+04    0.21622E-03   -0.39596E-04 15616   0.887E-02    0.148E-01
DAV:  50    -0.116506906423E+04   -0.32889E-04   -0.15244E-04 14272   0.343E-02    0.126E-01
DAV:  51    -0.116506907511E+04   -0.10881E-04   -0.11825E-04 15616   0.415E-02    0.655E-02
DAV:  52    -0.116506904691E+04    0.28192E-04   -0.58268E-05 13184   0.229E-02    0.600E-02
DAV:  53    -0.116506902733E+04    0.19587E-04   -0.97959E-05 14080   0.252E-02    0.379E-02
DAV:  54    -0.116506902130E+04    0.60287E-05   -0.25191E-05 14528   0.187E-02    0.246E-02
DAV:  55    -0.116506901899E+04    0.23055E-05   -0.21631E-05 13888   0.155E-02    0.214E-02
DAV:  56    -0.116506902043E+04   -0.14330E-05   -0.62720E-06 12736   0.844E-03    0.211E-02
DAV:  57    -0.116506901768E+04    0.27463E-05   -0.56328E-06 10240   0.856E-03    0.108E-02
DAV:  58    -0.116506901740E+04    0.27621E-06   -0.17922E-06  9536   0.537E-03
   1 F= -.11802098E+04 E0= -.11801997E+04  d E =-.118021E+04  mag=    -0.0188
