 vasp.5.4.4.18Apr17-6-g9f103f2a35 (build May 22 2020 17:00:04) complex          
  
 executed on           IFC15_impi date 2020.09.24  00:44:08
 running on  256 total cores
 distrk:  each k-point on  256 cores,    1 groups
 distr:  one band on NCORES_PER_BAND=   4 cores,   64 groups


--------------------------------------------------------------------------------------------------------


 INCAR:
 POTCAR:    PAW_PBE C 08Apr2002                   
 POTCAR:    PAW_PBE Co 02Aug2007                  
 POTCAR:    PAW_PBE H 15Jun2001                   
 POTCAR:    PAW_PBE N 08Apr2002                   
 POTCAR:    PAW_PBE O 08Apr2002                   

 ----------------------------------------------------------------------------- 
|                                                                             |
|           W    W    AA    RRRRR   N    N  II  N    N   GGGG   !!!           |
|           W    W   A  A   R    R  NN   N  II  NN   N  G    G  !!!           |
|           W    W  A    A  R    R  N N  N  II  N N  N  G       !!!           |
|           W WW W  AAAAAA  RRRRR   N  N N  II  N  N N  G  GGG   !            |
|           WW  WW  A    A  R   R   N   NN  II  N   NN  G    G                |
|           W    W  A    A  R    R  N    N  II  N    N   GGGG   !!!           |
|                                                                             |
|      For optimal performance we recommend to set                            |
|        NCORE= 4 - approx SQRT( number of cores)                             |
|      NCORE specifies how many cores store one orbital (NPAR=cpu/NCORE).     |
|      This setting can  greatly improve the performance of VASP for DFT.     |
|      The default,   NCORE=1            might be grossly inefficient         |
|      on modern multi-core architectures or massively parallel machines.     |
|      Do your own testing !!!!                                               |
|      Unfortunately you need to use the default for GW and RPA calculations. |
|      (for HF NCORE is supported but not extensively tested yet)             |
|                                                                             |
 ----------------------------------------------------------------------------- 

 POTCAR:    PAW_PBE C 08Apr2002                   
   VRHFIN =C: s2p2                                                              
   LEXCH  = PE                                                                  
   EATOM  =   147.1560 eV,   10.8157 Ry                                         
                                                                                
   TITEL  = PAW_PBE C 08Apr2002                                                 
   LULTRA =        F    use ultrasoft PP ?                                      
   IUNSCR =        1    unscreen: 0-lin 1-nonlin 2-no                           
   RPACOR =    1.200    partial core radius                                     
   POMASS =   12.011; ZVAL   =    4.000    mass and valenz                      
   RCORE  =    1.500    outmost cutoff radius                                   
   RWIGS  =    1.630; RWIGS  =    0.863    wigner-seitz radius (au A)           
   ENMAX  =  400.000; ENMIN  =  300.000 eV                                      
   ICORE  =        2    local potential                                         
   LCOR   =        T    correct aug charges                                     
   LPAW   =        T    paw PP                                                  
   EAUG   =  644.873                                                            
   DEXC   =    0.000                                                            
   RMAX   =    1.529    core radius for proj-oper                               
   RAUG   =    1.300    factor for augmentation sphere                          
   RDEP   =    1.501    radius for radial grids                                 
   RDEPT  =    1.300    core radius for aug-charge                              
                                                                                
   Atomic configuration                                                         
    4 entries                                                                   
     n  l   j            E        occ.                                          
     1  0  0.50      -273.3789   2.0000                                         
     2  0  0.50       -13.7508   2.0000                                         
     2  1  0.50        -5.2854   2.0000                                         
     3  2  1.50        -5.4423   0.0000                                         
   Description                                                                  
     l       E           TYP  RCUT    TYP  RCUT                                 
     0    -13.7508458     23  1.200                                             
     0     -8.2022199     23  1.200                                             
     1     -5.2854383     23  1.500                                             
     1     34.0145650     23  1.500                                             
     2     -5.4423304      7  1.500                                             
  local pseudopotential read in
  partial core-charges read in
  partial kinetic energy density read in
  atomic valenz-charges read in
  non local Contribution for L=           0  read in
    real space projection operators read in
  non local Contribution for L=           0  read in
    real space projection operators read in
  non local Contribution for L=           1  read in
    real space projection operators read in
  non local Contribution for L=           1  read in
    real space projection operators read in
    PAW grid and wavefunctions read in
 
   number of l-projection  operators is LMAX  =           4
   number of lm-projection operators is LMMAX =           8
 
 POTCAR:    PAW_PBE Co 02Aug2007                  
   VRHFIN =Co: d8 s1                                                            
   LEXCH  = PE                                                                  
   EATOM  =   813.3670 eV,   59.7808 Ry                                         
                                                                                
   TITEL  = PAW_PBE Co 02Aug2007                                                
   LULTRA =        F    use ultrasoft PP ?                                      
   IUNSCR =        1    unscreen: 0-lin 1-nonlin 2-no                           
   RPACOR =    2.000    partial core radius                                     
   POMASS =   58.933; ZVAL   =    9.000    mass and valenz                      
   RCORE  =    2.300    outmost cutoff radius                                   
   RWIGS  =    2.460; RWIGS  =    1.302    wigner-seitz radius (au A)           
   ENMAX  =  267.968; ENMIN  =  200.976 eV                                      
   RCLOC  =    1.203    cutoff for local pot                                    
   LCOR   =        T    correct aug charges                                     
   LPAW   =        T    paw PP                                                  
   EAUG   =  477.818                                                            
   DEXC   =    0.000                                                            
   RMAX   =    2.360    core radius for proj-oper                               
   RAUG   =    1.300    factor for augmentation sphere                          
   RDEP   =    2.393    radius for radial grids                                 
   RDEPT  =    1.864    core radius for aug-charge                              
                                                                                
   Atomic configuration                                                         
    9 entries                                                                   
     n  l   j            E        occ.                                          
     1  0  0.50     -7587.6674   2.0000                                         
     2  0  0.50      -893.6084   2.0000                                         
     2  1  1.50      -764.5805   6.0000                                         
     3  0  0.50       -97.5973   2.0000                                         
     3  1  1.50       -60.9648   6.0000                                         
     3  2  2.50        -4.2382   8.0000                                         
     4  0  0.50        -4.3746   1.0000                                         
     4  1  1.50        -4.0817   0.0000                                         
     4  3  2.50        -1.3606   0.0000                                         
   Description                                                                  
     l       E           TYP  RCUT    TYP  RCUT                                 
     2     -4.2382362     23  2.300                                             
     2     -5.5988188     23  2.300                                             
     0     -4.3745797     23  2.300                                             
     0      5.7660125     23  2.300                                             
     1     -2.7211652     23  2.300                                             
     1     16.9860234     23  2.300                                             
  local pseudopotential read in
  partial core-charges read in
  partial kinetic energy density read in
  atomic valenz-charges read in
  non local Contribution for L=           2  read in
    real space projection operators read in
  non local Contribution for L=           2  read in
    real space projection operators read in
  non local Contribution for L=           0  read in
    real space projection operators read in
  non local Contribution for L=           0  read in
    real space projection operators read in
  non local Contribution for L=           1  read in
    real space projection operators read in
  non local Contribution for L=           1  read in
    real space projection operators read in
    PAW grid and wavefunctions read in
 
   number of l-projection  operators is LMAX  =           6
   number of lm-projection operators is LMMAX =          18
 
 POTCAR:    PAW_PBE H 15Jun2001                   
   VRHFIN =H: ultrasoft test                                                    
   LEXCH  = PE                                                                  
   EATOM  =    12.4884 eV,    0.9179 Ry                                         
                                                                                
   TITEL  = PAW_PBE H 15Jun2001                                                 
   LULTRA =        F    use ultrasoft PP ?                                      
   IUNSCR =        0    unscreen: 0-lin 1-nonlin 2-no                           
   RPACOR =    0.000    partial core radius                                     
   POMASS =    1.000; ZVAL   =    1.000    mass and valenz                      
   RCORE  =    1.100    outmost cutoff radius                                   
   RWIGS  =    0.700; RWIGS  =    0.370    wigner-seitz radius (au A)           
   ENMAX  =  250.000; ENMIN  =  200.000 eV                                      
   RCLOC  =    0.701    cutoff for local pot                                    
   LCOR   =        T    correct aug charges                                     
   LPAW   =        T    paw PP                                                  
   EAUG   =  400.000                                                            
   RMAX   =    1.123    core radius for proj-oper                               
   RAUG   =    1.200    factor for augmentation sphere                          
   RDEP   =    1.112    radius for radial grids                                 
   RDEPT  =    0.926    core radius for aug-charge                              
                                                                                
   Atomic configuration                                                         
    2 entries                                                                   
     n  l   j            E        occ.                                          
     1  0  0.50        -6.4927   1.0000                                         
     2  1  0.50        -3.4015   0.0000                                         
   Description                                                                  
     l       E           TYP  RCUT    TYP  RCUT                                 
     0     -6.4927494     23  1.100                                             
     0      6.8029130     23  1.100                                             
     1     -4.0817478     23  1.100                                             
  local pseudopotential read in
  atomic valenz-charges read in
  non local Contribution for L=           0  read in
    real space projection operators read in
  non local Contribution for L=           0  read in
    real space projection operators read in
  non local Contribution for L=           1  read in
    real space projection operators read in
    PAW grid and wavefunctions read in
 
   number of l-projection  operators is LMAX  =           3
   number of lm-projection operators is LMMAX =           5
 
 POTCAR:    PAW_PBE N 08Apr2002                   
   VRHFIN =N: s2p3                                                              
   LEXCH  = PE                                                                  
   EATOM  =   264.5486 eV,   19.4438 Ry                                         
                                                                                
   TITEL  = PAW_PBE N 08Apr2002                                                 
   LULTRA =        F    use ultrasoft PP ?                                      
   IUNSCR =        1    unscreen: 0-lin 1-nonlin 2-no                           
   RPACOR =    1.200    partial core radius                                     
   POMASS =   14.001; ZVAL   =    5.000    mass and valenz                      
   RCORE  =    1.500    outmost cutoff radius                                   
   RWIGS  =    1.400; RWIGS  =    0.741    wigner-seitz radius (au A)           
   ENMAX  =  400.000; ENMIN  =  300.000 eV                                      
   ICORE  =        2    local potential                                         
   LCOR   =        T    correct aug charges                                     
   LPAW   =        T    paw PP                                                  
   EAUG   =  627.112                                                            
   DEXC   =    0.000                                                            
   RMAX   =    1.529    core radius for proj-oper                               
   RAUG   =    1.300    factor for augmentation sphere                          
   RDEP   =    1.514    radius for radial grids                                 
   RDEPT  =    1.338    core radius for aug-charge                              
                                                                                
   Atomic configuration                                                         
    4 entries                                                                   
     n  l   j            E        occ.                                          
     1  0  0.50      -384.7179   2.0000                                         
     2  0  0.50       -18.5828   2.0000                                         
     2  1  0.50        -7.0898   3.0000                                         
     3  2  1.50        -6.8029   0.0000                                         
   Description                                                                  
     l       E           TYP  RCUT    TYP  RCUT                                 
     0    -18.5828119     23  1.200                                             
     0    -13.5018863     23  1.200                                             
     1     -7.0897853     23  1.500                                             
     1      9.5240782     23  1.500                                             
     2     -6.8029130      7  1.500                                             
  local pseudopotential read in
  partial core-charges read in
  partial kinetic energy density read in
  atomic valenz-charges read in
  non local Contribution for L=           0  read in
    real space projection operators read in
  non local Contribution for L=           0  read in
    real space projection operators read in
  non local Contribution for L=           1  read in
    real space projection operators read in
  non local Contribution for L=           1  read in
    real space projection operators read in
    PAW grid and wavefunctions read in
 
   number of l-projection  operators is LMAX  =           4
   number of lm-projection operators is LMMAX =           8
 
 POTCAR:    PAW_PBE O 08Apr2002                   
   VRHFIN =O: s2p4                                                              
   LEXCH  = PE                                                                  
   EATOM  =   432.3788 eV,   31.7789 Ry                                         
                                                                                
   TITEL  = PAW_PBE O 08Apr2002                                                 
   LULTRA =        F    use ultrasoft PP ?                                      
   IUNSCR =        1    unscreen: 0-lin 1-nonlin 2-no                           
   RPACOR =    1.200    partial core radius                                     
   POMASS =   16.000; ZVAL   =    6.000    mass and valenz                      
   RCORE  =    1.520    outmost cutoff radius                                   
   RWIGS  =    1.550; RWIGS  =    0.820    wigner-seitz radius (au A)           
   ENMAX  =  400.000; ENMIN  =  300.000 eV                                      
   ICORE  =        2    local potential                                         
   LCOR   =        T    correct aug charges                                     
   LPAW   =        T    paw PP                                                  
   EAUG   =  605.392                                                            
   DEXC   =    0.000                                                            
   RMAX   =    1.553    core radius for proj-oper                               
   RAUG   =    1.300    factor for augmentation sphere                          
   RDEP   =    1.550    radius for radial grids                                 
   RDEPT  =    1.329    core radius for aug-charge                              
                                                                                
   Atomic configuration                                                         
    4 entries                                                                   
     n  l   j            E        occ.                                          
     1  0  0.50      -514.6923   2.0000                                         
     2  0  0.50       -23.9615   2.0000                                         
     2  1  0.50        -9.0305   4.0000                                         
     3  2  1.50        -9.5241   0.0000                                         
   Description                                                                  
     l       E           TYP  RCUT    TYP  RCUT                                 
     0    -23.9615318     23  1.200                                             
     0     -9.5240782     23  1.200                                             
     1     -9.0304911     23  1.520                                             
     1      8.1634956     23  1.520                                             
     2     -9.5240782      7  1.500                                             
  local pseudopotential read in
  partial core-charges read in
  partial kinetic energy density read in
  kinetic energy density of atom read in
  atomic valenz-charges read in
  non local Contribution for L=           0  read in
    real space projection operators read in
  non local Contribution for L=           0  read in
    real space projection operators read in
  non local Contribution for L=           1  read in
    real space projection operators read in
  non local Contribution for L=           1  read in
    real space projection operators read in
    PAW grid and wavefunctions read in
 
   number of l-projection  operators is LMAX  =           4
   number of lm-projection operators is LMMAX =           8
 
 Optimization of the real space projectors (new method)

 maximal supplied QI-value         = 25.13
 optimisation between [QCUT,QGAM] = [ 12.32, 24.88] = [ 42.47,173.37] Ry 
 Optimized for a Real-space Cutoff    1.06 Angstroem

   l    n(q)    QCUT    max X(q) W(low)/X(q) W(high)/X(q)  e(spline) 
   0      8    12.315   115.676    0.34E-03    0.18E-03    0.23E-06
   0      8    12.315    87.132    0.34E-03    0.18E-03    0.22E-06
   1      7    12.315     4.429    0.45E-03    0.12E-03    0.18E-06
   1      7    12.315     2.733    0.35E-03    0.97E-04    0.15E-06
 Optimization of the real space projectors (new method)

 maximal supplied QI-value         = 16.25
 optimisation between [QCUT,QGAM] = [ 12.51, 25.03] = [ 43.85,175.40] Ry 
 Optimized for a Real-space Cutoff    1.31 Angstroem

   l    n(q)    QCUT    max X(q) W(low)/X(q) W(high)/X(q)  e(spline) 
   2      9    12.514    65.824    0.30E-03    0.46E-03    0.43E-06
   2      9    12.514    61.429    0.31E-03    0.46E-03    0.44E-06
   0     10    12.514    56.174    0.90E-04    0.33E-03    0.30E-06
   0     10    12.514    31.263    0.81E-04    0.30E-03    0.28E-06
   1      9    12.514    19.828    0.38E-03    0.65E-04    0.24E-06
   1      9    12.514    15.139    0.32E-03    0.60E-04    0.20E-06
 Optimization of the real space projectors (new method)

 maximal supplied QI-value         = 34.20
 optimisation between [QCUT,QGAM] = [ 12.31, 24.97] = [ 42.46,174.58] Ry 
 Optimized for a Real-space Cutoff    1.00 Angstroem

   l    n(q)    QCUT    max X(q) W(low)/X(q) W(high)/X(q)  e(spline) 
   0      7    12.313    19.460    0.14E-03    0.42E-03    0.16E-06
   0      7    12.313    12.209    0.12E-03    0.40E-03    0.16E-06
   1      7    12.313     4.655    0.33E-03    0.59E-03    0.89E-07
 Optimization of the real space projectors (new method)

 maximal supplied QI-value         = 25.13
 optimisation between [QCUT,QGAM] = [ 12.32, 24.88] = [ 42.47,173.37] Ry 
 Optimized for a Real-space Cutoff    1.20 Angstroem

   l    n(q)    QCUT    max X(q) W(low)/X(q) W(high)/X(q)  e(spline) 
   0      9    12.315    79.467    0.14E-03    0.22E-04    0.37E-06
   0      9    12.315    66.151    0.14E-03    0.23E-04    0.36E-06
   1      8    12.315    22.077    0.30E-03    0.54E-03    0.45E-06
   1      8    12.315    15.894    0.30E-03    0.55E-03    0.45E-06
 Optimization of the real space projectors (new method)

 maximal supplied QI-value         = 24.76
 optimisation between [QCUT,QGAM] = [ 12.38, 25.00] = [ 42.90,175.06] Ry 
 Optimized for a Real-space Cutoff    1.13 Angstroem

   l    n(q)    QCUT    max X(q) W(low)/X(q) W(high)/X(q)  e(spline) 
   0      8    12.378    20.381    0.16E-03    0.54E-05    0.27E-06
   0      8    12.378    15.268    0.17E-03    0.61E-05    0.29E-06
   1      8    12.378     5.964    0.38E-03    0.23E-03    0.28E-06
   1      8    12.378     5.382    0.33E-03    0.20E-03    0.25E-06
  PAW_PBE C 08Apr2002                   :
 energy of atom  1       EATOM= -147.1560
 kinetic energy error for atom=    0.0057 (will be added to EATOM!!)
  PAW_PBE Co 02Aug2007                  :
 energy of atom  2       EATOM= -813.3670
 kinetic energy error for atom=    0.0018 (will be added to EATOM!!)
  PAW_PBE H 15Jun2001                   :
 energy of atom  3       EATOM=  -12.4884
 kinetic energy error for atom=    0.0004 (will be added to EATOM!!)
  PAW_PBE N 08Apr2002                   :
 energy of atom  4       EATOM= -264.5486
 kinetic energy error for atom=    0.0103 (will be added to EATOM!!)
  PAW_PBE O 08Apr2002                   :
 energy of atom  5       EATOM= -432.3788
 kinetic energy error for atom=    0.0168 (will be added to EATOM!!)
 
 
 POSCAR:  Co_F                                   
  positions in direct lattice
  velocities in cartesian coordinates
 exchange correlation table for  LEXCH =        8
   RHO(1)=    0.500       N(1)  =     2000
   RHO(2)=  100.500       N(2)  =     4000
 


--------------------------------------------------------------------------------------------------------


 ion  position               nearest neighbor table
   1  0.887  0.951  0.079- 107 1.08 117 1.34  65 1.39
   2  0.739  0.945  0.358- 112 1.09 118 1.36  65 1.40
   3  0.903  0.794  0.821- 116 1.08 119 1.34  66 1.39
   4  0.614  0.451  0.575- 110 1.08 120 1.34  67 1.39
   5  0.747  0.298  0.038- 111 1.09 121 1.36  68 1.40
   6  0.264  0.801  0.045- 115 1.09 122 1.36  69 1.40
   7  0.761  0.445  0.856- 101 1.09 123 1.36  67 1.40
   8  0.597  0.294  0.318- 113 1.08 124 1.34  68 1.39
   9  0.252  0.448  0.359- 114 1.09 125 1.36  70 1.40
  10  0.116  0.795  0.324- 104 1.08 126 1.34  69 1.39
  11  0.249  0.948  0.862- 105 1.09 127 1.36  71 1.40
  12  0.237  0.301  0.541- 102 1.09 128 1.36  72 1.40
  13  0.754  0.798  0.541- 108 1.09 129 1.36  66 1.40
  14  0.099  0.953  0.582- 109 1.08 130 1.34  71 1.39
  15  0.385  0.295  0.821- 106 1.08 131 1.34  72 1.39
  16  0.401  0.452  0.078- 103 1.08 132 1.34  70 1.39
  17  0.672  0.026  0.055- 141 1.23 133 1.41  33 1.48
  18  0.813  0.044  0.399- 142 1.23 133 1.41  34 1.48
  19  0.841  0.700  0.501- 143 1.23 134 1.41  35 1.48
  20  0.688  0.544  0.898- 144 1.23 135 1.41  36 1.48
  21  0.660  0.200  0.999- 145 1.23 136 1.41  37 1.48
  22  0.330  0.720  0.347- 146 1.23 137 1.41  38 1.48
  23  0.829  0.526  0.553- 147 1.23 135 1.41  39 1.48
  24  0.801  0.218  0.343- 148 1.23 136 1.41  40 1.48
  25  0.197  0.529  0.055- 149 1.23 138 1.41  41 1.48
  26  0.190  0.702  0.002- 150 1.23 137 1.41  42 1.48
  27  0.162  0.046  0.901- 151 1.23 139 1.41  43 1.48
  28  0.311  0.202  0.500- 152 1.23 140 1.41  44 1.48
  29  0.699  0.718  0.845- 153 1.23 134 1.41  45 1.48
  30  0.303  0.029  0.557- 154 1.23 139 1.41  46 1.48
  31  0.171  0.220  0.845- 155 1.23 140 1.41  47 1.48
  32  0.339  0.546  0.399- 156 1.23 138 1.41  48 1.48
  33  0.674  0.070  0.042-  49 1.38  73 1.41  17 1.48
  34  0.803  0.088  0.385-  50 1.39  73 1.41  18 1.48
  35  0.832  0.655  0.515-  51 1.39  74 1.41  19 1.48
  36  0.698  0.588  0.884-  52 1.39  75 1.41  20 1.48
  37  0.669  0.155  0.013-  53 1.39  76 1.41  21 1.48
  38  0.328  0.676  0.359-  54 1.38  77 1.41  22 1.48
  39  0.827  0.571  0.541-  55 1.38  75 1.41  23 1.48
  40  0.798  0.173  0.357-  56 1.38  76 1.41  24 1.48
  41  0.202  0.573  0.042-  57 1.38  78 1.41  25 1.48
  42  0.198  0.658  0.016-  58 1.39  77 1.41  26 1.48
  43  0.169  0.091  0.886-  59 1.39  79 1.41  27 1.48
  44  0.303  0.158  0.515-  60 1.39  80 1.41  28 1.48
  45  0.703  0.673  0.858-  61 1.38  74 1.41  29 1.48
  46  0.299  0.073  0.543-  62 1.38  79 1.41  30 1.48
  47  0.173  0.176  0.858-  63 1.38  80 1.41  31 1.48
  48  0.331  0.591  0.386-  64 1.39  78 1.41  32 1.48
  49  0.612  0.083  0.867-  88 1.09  33 1.38  53 1.40
  50  0.864  0.119  0.545-  99 1.09  34 1.39  56 1.40
  51  0.893  0.625  0.354-  93 1.09  35 1.39  55 1.40
  52  0.637  0.618  0.045-  90 1.09  36 1.39  61 1.40
  53  0.608  0.125  0.853-  98 1.09  37 1.39  49 1.40
  54  0.389  0.663  0.534-  96 1.09  38 1.38  64 1.40
  55  0.889  0.583  0.366-  86 1.09  39 1.38  51 1.40
  56  0.859  0.161  0.532-  87 1.09  40 1.38  50 1.40
  57  0.141  0.586  0.868-  95 1.09  41 1.38  58 1.40
  58  0.137  0.628  0.855-  91 1.09  42 1.39  57 1.40
  59  0.108  0.121  0.046-  92 1.09  43 1.39  63 1.40
  60  0.364  0.128  0.355-  85 1.09  44 1.39  62 1.40
  61  0.641  0.660  0.033-  89 1.09  45 1.38  52 1.40
  62  0.360  0.085  0.368- 100 1.09  46 1.38  60 1.40
  63  0.111  0.163  0.033-  94 1.09  47 1.38  59 1.40
  64  0.393  0.621  0.546-  97 1.09  48 1.39  54 1.40
  65  0.778  0.973  0.227-   1 1.39   2 1.40 133 1.42
  66  0.798  0.771  0.672-   3 1.39  13 1.40 134 1.42
  67  0.723  0.473  0.724-   4 1.39   7 1.40 135 1.42
  68  0.702  0.271  0.169-   8 1.39   5 1.40 136 1.42
  69  0.225  0.774  0.177-  10 1.39   6 1.40 137 1.42
  70  0.296  0.475  0.227-  16 1.39   9 1.40 138 1.42
  71  0.204  0.975  0.731-  14 1.39  11 1.40 139 1.42
  72  0.276  0.273  0.673-  15 1.39  12 1.40 140 1.42
  73  0.737  0.100  0.206-  34 1.41  33 1.41  76 1.42
  74  0.766  0.643  0.692-  35 1.41  45 1.41  75 1.42
  75  0.764  0.600  0.706-  36 1.41  39 1.41  74 1.42
  76  0.735  0.143  0.192-  37 1.41  40 1.41  73 1.42
  77  0.264  0.646  0.194-  42 1.41  38 1.41  78 1.42
  78  0.265  0.603  0.208-  48 1.41  41 1.41  77 1.42
  79  0.235  0.103  0.708-  43 1.41  46 1.41  80 1.42
  80  0.236  0.146  0.693-  44 1.41  47 1.41  79 1.42
  81  0.063  0.873  0.952- 119 1.95 117 1.96 127 1.96 122 1.96
  82  0.939  0.873  0.451- 130 1.95 126 1.96 129 1.96 118 1.96
  83  0.437  0.373  0.449- 124 1.95 120 1.96 125 1.96 128 1.97
  84  0.561  0.373  0.947- 132 1.95 131 1.96 121 1.96 123 1.96
  85  0.414  0.138  0.219-  60 1.09
  86  0.932  0.559  0.239-  55 1.09
  87  0.903  0.185  0.658-  56 1.09
  88  0.569  0.059  0.740-  49 1.09
  89  0.598  0.684  0.160-  61 1.09
  90  0.587  0.608  0.181-  52 1.09
  91  0.087  0.638  0.720-  58 1.09
  92  0.058  0.111  0.182-  59 1.09
  93  0.943  0.635  0.218-  51 1.09
  94  0.068  0.187  0.159-  63 1.09
  95  0.097  0.562  0.741-  57 1.09
  96  0.433  0.687  0.661-  54 1.09
  97  0.443  0.610  0.682-  64 1.09
  98  0.557  0.135  0.717-  53 1.09
  99  0.914  0.109  0.681-  50 1.09
 100  0.404  0.062  0.242-  62 1.09
 101  0.838  0.450  0.994-   7 1.09
 102  0.160  0.296  0.403-  12 1.09
 103  0.461  0.463  0.949-  16 1.08
 104  0.058  0.784  0.452-  10 1.08
 105  0.326  0.953  1.000-  11 1.09
 106  0.444  0.284  0.949-  15 1.08
 107  0.946  0.962  0.952-   1 1.08
 108  0.677  0.793  0.402-  13 1.09
 109  0.038  0.963  0.454-  14 1.08
 110  0.556  0.462  0.447-   4 1.08
 111  0.824  0.293  0.899-   5 1.09
 112  0.662  0.950  0.496-   2 1.09
 113  0.536  0.283  0.446-   8 1.08
 114  0.175  0.453  0.498-   9 1.09
 115  0.340  0.796  0.906-   6 1.09
 116  0.964  0.783  0.950-   3 1.08
 117  0.915  0.914  0.121-   1 1.34 118 1.38  81 1.96
 118  0.823  0.909  0.292-   2 1.36 117 1.38  82 1.96
 119  0.923  0.832  0.781-   3 1.34 129 1.38  81 1.95
 120  0.586  0.413  0.617-   4 1.34 123 1.38  83 1.96
 121  0.669  0.335  0.105-   5 1.36 124 1.38  84 1.96
 122  0.180  0.837  0.111-   6 1.36 126 1.38  81 1.96
 123  0.677  0.409  0.789-   7 1.36 120 1.38  84 1.96
 124  0.577  0.332  0.277-   8 1.34 121 1.38  83 1.95
 125  0.329  0.411  0.291-   9 1.36 132 1.38  83 1.96
 126  0.088  0.833  0.283-  10 1.34 122 1.38  82 1.96
 127  0.172  0.911  0.795-  11 1.36 130 1.38  81 1.96
 128  0.321  0.337  0.607-  12 1.36 131 1.38  83 1.97
 129  0.831  0.835  0.608-  13 1.36 119 1.38  82 1.96
 130  0.079  0.914  0.623-  14 1.34 127 1.38  82 1.95
 131  0.412  0.333  0.779-  15 1.34 128 1.38  84 1.96
 132  0.421  0.414  0.119-  16 1.34 125 1.38  84 1.95
 133  0.742  0.016  0.235-  18 1.41  17 1.41  65 1.42
 134  0.767  0.728  0.664-  19 1.41  29 1.41  66 1.42
 135  0.759  0.515  0.733-  20 1.41  23 1.41  67 1.42
 136  0.733  0.228  0.162-  21 1.41  24 1.41  68 1.42
 137  0.261  0.731  0.167-  26 1.41  22 1.41  69 1.42
 138  0.265  0.518  0.236-  32 1.41  25 1.41  70 1.42
 139  0.235  0.018  0.738-  27 1.41  30 1.41  71 1.42
 140  0.240  0.231  0.664-  28 1.41  31 1.41  72 1.42
 141  0.614  0.999  0.917-  17 1.23
 142  0.880  0.033  0.547-  18 1.23
 143  0.908  0.712  0.355-  19 1.23
 144  0.621  0.532  0.045-  20 1.23
 145  0.592  0.211  0.852-  21 1.23
 146  0.389  0.747  0.485-  22 1.23
 147  0.887  0.499  0.415-  23 1.23
 148  0.861  0.244  0.481-  24 1.23
 149  0.138  0.502  0.917-  25 1.23
 150  0.123  0.714  0.855-  26 1.23
 151  0.094  0.035  0.048-  27 1.23
 152  0.378  0.214  0.353-  28 1.23
 153  0.639  0.744  0.983-  29 1.23
 154  0.364  0.002  0.420-  30 1.23
 155  0.112  0.247  0.982-  31 1.23
 156  0.406  0.534  0.546-  32 1.23
 

IMPORTANT INFORMATION: All symmetrisations will be switched off!
NOSYMM: (Re-)initialisation of all symmetry stuff for point group C_1.

 
 

Automatic generation of k-mesh.
 generate k-points for:    3    1    4
Space group operators:
 irot       det(A)        alpha          n_x          n_y          n_z        tau_x        tau_y        tau_z
    1     1.000000     0.000000     1.000000     0.000000     0.000000     0.000000     0.000000     0.000000
 
 Subroutine IBZKPT returns following result:
 ===========================================
 
 Found      7 irreducible k-points:
 
 Following reciprocal coordinates:
            Coordinates               Weight
  0.000000  0.000000  0.000000      1.000000
  0.333333  0.000000 -0.000000      2.000000
  0.000000  0.000000  0.250000      2.000000
  0.333333 -0.000000  0.250000      2.000000
 -0.333333  0.000000  0.250000      2.000000
  0.000000  0.000000  0.500000      1.000000
  0.333333  0.000000  0.500000      2.000000
 
 Following cartesian coordinates:
            Coordinates               Weight
  0.000000  0.000000  0.000000      1.000000
  0.041533  0.000000  0.000001      2.000000
  0.000003  0.003478  0.038535      2.000000
  0.041536  0.003479  0.038535      2.000000
 -0.041530  0.003478  0.038534      2.000000
  0.000006  0.006957  0.077069      1.000000
  0.041539  0.006957  0.077070      2.000000
 


--------------------------------------------------------------------------------------------------------




 Dimension of arrays:
   k-points           NKPTS =      7   k-points in BZ     NKDIM =      7   number of bands    NBANDS=    384
   number of dos      NEDOS =    301   number of ions     NIONS =    156
   non local maximal  LDIM  =      6   non local SUM 2l+1 LMDIM =     18
   total plane-waves  NPLWV = 376320
   max r-space proj   IRMAX =   2118   max aug-charges    IRDMAX=   8928
   dimension x,y,z NGX =    48 NGY =  196 NGZ =   40
   dimension x,y,z NGXF=    96 NGYF=  392 NGZF=   80
   support grid    NGXF=    96 NGYF=  392 NGZF=   80
   ions per type =              80   4  32  24  16
   NGX,Y,Z   is equivalent  to a cutoff of   9.94,  9.94, 10.10 a.u.
   NGXF,Y,Z  is equivalent  to a cutoff of  19.89, 19.88, 20.21 a.u.

 SYSTEM =  flex_MOF                                
 POSCAR =   Co_F                                   

 Startparameter for this run:
   NWRITE =      2    write-flag & timer
   PREC   = normal    normal or accurate (medium, high low for compatibility)
   ISTART =      0    job   : 0-new  1-cont  2-samecut
   ICHARG =      2    charge: 1-file 2-atom 10-const
   ISPIN  =      2    spin polarized calculation?
   LNONCOLLINEAR =      F non collinear calculations
   LSORBIT =      F    spin-orbit coupling
   INIWAV =      1    electr: 0-lowe 1-rand  2-diag
   LASPH  =      F    aspherical Exc in radial PAW
   METAGGA=      F    non-selfconsistent MetaGGA calc.

 Electronic Relaxation 1
   ENCUT  =  600.0 eV  44.10 Ry    6.64 a.u.  16.03 65.48 13.15*2*pi/ulx,y,z
   ENINI  =  600.0     initial cutoff
   ENAUG  =  644.9 eV  augmentation charge cutoff
   NELM   =    100;   NELMIN=  8; NELMDL= -5     # of ELM steps 
   EDIFF  = 0.1E-05   stopping-criterion for ELM
   LREAL  =      T    real-space projection
   NLSPLINE    = F    spline interpolate recip. space projectors
   LCOMPAT=      F    compatible to vasp.4.4
   GGA_COMPAT  = T    GGA compatible to vasp.4.4-vasp.4.6
   LMAXPAW     = -100 max onsite density
   LMAXMIX     =    2 max onsite mixed and CHGCAR
   VOSKOWN=      0    Vosko Wilk Nusair interpolation
   ROPT   =   -0.00050  -0.00050  -0.00050  -0.00050
   ROPT   =   -0.00050
 Ionic relaxation
   EDIFFG = -.1E-01   stopping-criterion for IOM
   NSW    =    500    number of steps for IOM
   NBLOCK =      1;   KBLOCK =    500    inner block; outer block 
   IBRION =      2    ionic relax: 0-MD 1-quasi-New 2-CG
   NFREE  =      1    steps in history (QN), initial steepest desc. (CG)
   ISIF   =      4    stress and relaxation
   IWAVPR =     11    prediction:  0-non 1-charg 2-wave 3-comb
   ISYM   =      0    0-nonsym 1-usesym 2-fastsym
   LCORR  =      T    Harris-Foulkes like correction to forces

   POTIM  = 0.5000    time-step for ionic-motion
   TEIN   =    0.0    initial temperature
   TEBEG  =    0.0;   TEEND  =   0.0 temperature during run
   SMASS  =  -3.00    Nose mass-parameter (am)
   estimated Nose-frequenzy (Omega)   =  0.10E-29 period in steps =****** mass=  -0.147E-26a.u.
   SCALEE = 1.0000    scale energy and forces
   NPACO  =    256;   APACO  = 16.0  distance and # of slots for P.C.
   PSTRESS=    0.0 pullay stress

  Mass of Ions in am
   POMASS =  12.01 58.93  1.00 14.00 16.00
  Ionic Valenz
   ZVAL   =   4.00  9.00  1.00  5.00  6.00
  Atomic Wigner-Seitz radii
   RWIGS  =  -1.00 -1.00 -1.00 -1.00 -1.00
  virtual crystal weights 
   VCA    =   1.00  1.00  1.00  1.00  1.00
   NELECT =     604.0000    total number of electrons
   NUPDOWN=      -1.0000    fix difference up-down

 DOS related values:
   EMIN   =  10.00;   EMAX   =-10.00  energy-range for DOS
   EFERMI =   0.00
   ISMEAR =     0;   SIGMA  =   0.05  broadening in eV -4-tet -1-fermi 0-gaus

 Electronic relaxation 2 (details)
   IALGO  =     38    algorithm
   LDIAG  =      T    sub-space diagonalisation (order eigenvalues)
   LSUBROT=      F    optimize rotation matrix (better conditioning)
   TURBO    =      0    0=normal 1=particle mesh
   IRESTART =      0    0=no restart 2=restart with 2 vectors
   NREBOOT  =      0    no. of reboots
   NMIN     =      0    reboot dimension
   EREF     =   0.00    reference energy to select bands
   IMIX   =      4    mixing-type and parameters
     AMIX     =   0.40;   BMIX     =  1.00
     AMIX_MAG =   1.60;   BMIX_MAG =  1.00
     AMIN     =   0.10
     WC   =   100.;   INIMIX=   1;  MIXPRE=   1;  MAXMIX= -45

 Intra band minimization:
   WEIMIN = 0.0010     energy-eigenvalue tresh-hold
   EBREAK =  0.65E-09  absolut break condition
   DEPER  =   0.30     relativ break condition  

   TIME   =   0.40     timestep for ELM

  volume/ion in A,a.u.               =      10.90        73.55
  Fermi-wavevector in a.u.,A,eV,Ry     =   1.159456  2.191055 18.290844  1.344339
  Thomas-Fermi vector in A             =   2.296049
 
 Write flags
   LWAVE        =      T    write WAVECAR
   LDOWNSAMPLE  =      F    k-point downsampling of WAVECAR
   LCHARG       =      T    write CHGCAR
   LVTOT        =      F    write LOCPOT, total local potential
   LVHAR        =      F    write LOCPOT, Hartree potential only
   LELF         =      F    write electronic localiz. function (ELF)
   LORBIT       =     11    0 simple, 1 ext, 2 COOP (PROOUT), +10 PAW based schemes


 Dipole corrections
   LMONO  =      F    monopole corrections only (constant potential shift)
   LDIPOL =      F    correct potential (dipole corrections)
   IDIPOL =      0    1-x, 2-y, 3-z, 4-all directions 
   EPSILON=  1.0000000 bulk dielectric constant

 Exchange correlation treatment:
   GGA     =    PE    GGA type
   LEXCH   =     8    internal setting for exchange type
   VOSKOWN=      0    Vosko Wilk Nusair interpolation
   LHFCALC =     F    Hartree Fock is set to
   LHFONE  =     F    Hartree Fock one center treatment
   AEXX    =    0.0000 exact exchange contribution

 Linear response parameters
   LEPSILON=     F    determine dielectric tensor
   LRPA    =     F    only Hartree local field effects (RPA)
   LNABLA  =     F    use nabla operator in PAW spheres
   LVEL    =     F    velocity operator in full k-point grid
   LINTERFAST=   F  fast interpolation
   KINTER  =     0    interpolate to denser k-point grid
   CSHIFT  =0.1000    complex shift for real part using Kramers Kronig
   OMEGAMAX=  -1.0    maximum frequency
   DEG_THRESHOLD= 0.2000000E-02 threshold for treating states as degnerate
   RTIME   =   -0.100 relaxation time in fs
  (WPLASMAI=    0.000 imaginary part of plasma frequency in eV, 0.658/RTIME)
   DFIELD  = 0.0000000 0.0000000 0.0000000 field for delta impulse in time
 
 Orbital magnetization related:
   ORBITALMAG=     F  switch on orbital magnetization
   LCHIMAG   =     F  perturbation theory with respect to B field
   DQ        =  0.001000  dq finite difference perturbation B field
   LLRAUG    =     F  two centre corrections for induced B field



--------------------------------------------------------------------------------------------------------


 conjugate gradient relaxation of ions
 charge density and potential will be updated during run
 spin polarized calculation
 Variant of blocked Davidson
 Davidson routine will perform the subspace rotation
 perform sub-space diagonalisation
    after iterative eigenvector-optimisation
 modified Broyden-mixing scheme, WC =      100.0
 initial mixing is a Kerker type mixing with AMIX =  0.4000 and BMIX =      1.0000
 Hartree-type preconditioning will be used
 using additional bands           82
 real space projection scheme for non local part
 use partial core corrections
 calculate Harris-corrections to forces 
   (improved forces if not selfconsistent)
 use gradient corrections 
 use of overlap-Matrix (Vanderbilt PP)
 Gauss-broadening in eV      SIGMA  =   0.05


--------------------------------------------------------------------------------------------------------


  energy-cutoff  :      600.00
  volume of cell :     1700.19
      direct lattice vectors                 reciprocal lattice vectors
     8.025776208  0.000648365 -0.000671302     0.124598540  0.000001461  0.000001998
    -0.000335656 32.652874333 -2.947484144    -0.000002234  0.030909277  0.003147343
    -0.000097192 -0.666737926  6.547869222     0.000011769  0.013913626  0.154138195

  length of vectors
     8.025776263 32.785635042  6.581727040     0.124598540  0.031069103  0.154764894


 
 k-points in units of 2pi/SCALE and weight: read from INCAR                         
   0.00000000  0.00000000  0.00000000       0.083
   0.04153285  0.00000049  0.00000067       0.167
   0.00000294  0.00347841  0.03853455       0.167
   0.04153579  0.00347889  0.03853521       0.167
  -0.04152990  0.00347792  0.03853388       0.167
   0.00000588  0.00695681  0.07706910       0.083
   0.04153873  0.00695730  0.07706976       0.167
 
 k-points in reciprocal lattice and weights: read from INCAR                         
   0.00000000  0.00000000  0.00000000       0.083
   0.33333333  0.00000000 -0.00000000       0.167
   0.00000000  0.00000000  0.25000000       0.167
   0.33333333 -0.00000000  0.25000000       0.167
  -0.33333333  0.00000000  0.25000000       0.167
   0.00000000  0.00000000  0.50000000       0.083
   0.33333333  0.00000000  0.50000000       0.167
 
 position of ions in fractional coordinates (direct lattice) 
   0.88745179  0.95140801  0.07933131
   0.73881438  0.94536600  0.35845605
   0.90318937  0.79362144  0.82126658
   0.61402275  0.45120701  0.57541012
   0.74684701  0.29801871  0.03752224
   0.26369106  0.80097341  0.04459016
   0.76136157  0.44521019  0.85561987
   0.59687799  0.29350936  0.31772382
   0.25173281  0.44801455  0.35906729
   0.11589614  0.79498147  0.32445223
   0.24920674  0.94804836  0.86194908
   0.23693525  0.30071557  0.54091304
   0.75360893  0.79812056  0.54067293
   0.09873206  0.95265142  0.58218527
   0.38499327  0.29476051  0.82065094
   0.40073211  0.45245703  0.07802416
   0.67213728  0.02597248  0.05484780
   0.81281915  0.04417368  0.39929943
   0.84052699  0.69982513  0.50094092
   0.68812750  0.54391330  0.89762275
   0.65994973  0.19959447  0.99886094
   0.33026570  0.72009371  0.34712194
   0.82870372  0.52602244  0.55305719
   0.80129635  0.21762141  0.34315384
   0.19745325  0.52870491  0.05470973
   0.18961837  0.70233320  0.00246296
   0.16155897  0.04645748  0.90101405
   0.31149200  0.20197191  0.50030125
   0.69889245  0.71755208  0.84516931
   0.30347132  0.02856474  0.55709292
   0.17059051  0.22004262  0.84462080
   0.33880814  0.54626741  0.39918320
   0.67419613  0.07049515  0.04152918
   0.80317688  0.08848748  0.38478492
   0.83188735  0.65543845  0.51453684
   0.69771186  0.58828269  0.88405963
   0.66861520  0.15525077  0.01348590
   0.32761011  0.67551011  0.35931830
   0.82661419  0.57059922  0.54072062
   0.79760668  0.17316959  0.35688656
   0.20202601  0.57320421  0.04210347
   0.19834205  0.65796190  0.01605683
   0.16924045  0.09079425  0.88621519
   0.30255090  0.15764719  0.51486794
   0.70282627  0.67305475  0.85801259
   0.29872168  0.07299113  0.54307969
   0.17318372  0.17551960  0.85790149
   0.33124542  0.59066756  0.38551230
   0.61207433  0.08291998  0.86666021
   0.86383215  0.11858437  0.54513928
   0.89305311  0.62545186  0.35398613
   0.63695342  0.61824519  0.04494531
   0.60753377  0.12513042  0.85346057
   0.38943602  0.66283766  0.53369243
   0.88863543  0.58319605  0.36625184
   0.85934819  0.16077173  0.53197122
   0.14056137  0.58583849  0.86751143
   0.13703357  0.62807423  0.85523555
   0.10754664  0.12084784  0.04608983
   0.36384849  0.12761673  0.35467094
   0.64120589  0.66047857  0.03268006
   0.36024366  0.08543286  0.36803372
   0.11125624  0.16304934  0.03274629
   0.39299175  0.62058088  0.54600794
   0.77826990  0.97277951  0.22681089
   0.79821372  0.77110939  0.67221383
   0.72265555  0.47259997  0.72357889
   0.70213911  0.27100823  0.16900761
   0.22474340  0.77358966  0.17656190
   0.29600662  0.47500302  0.22731778
   0.20427191  0.97510163  0.73073712
   0.27610776  0.27334491  0.67290199
   0.73694442  0.10048472  0.20647144
   0.76571674  0.64324209  0.69244596
   0.76382023  0.60046084  0.70617059
   0.73485319  0.14322450  0.19181111
   0.26428521  0.64572579  0.19389662
   0.26542788  0.60294727  0.20762083
   0.23521878  0.10287107  0.70791201
   0.23648029  0.14559731  0.69309648
   0.06349116  0.87345447  0.95240478
   0.93859134  0.87281977  0.45088793
   0.43680345  0.37336223  0.44901226
   0.56133771  0.37264194  0.94708669
   0.41374492  0.13757256  0.21881181
   0.93173885  0.55937334  0.23924800
   0.90268700  0.18467900  0.65840170
   0.56893348  0.05899785  0.74012523
   0.59779203  0.68427320  0.15957333
   0.58696665  0.60818736  0.18050028
   0.08727362  0.63819255  0.71972151
   0.05766993  0.11091584  0.18207618
   0.94313678  0.63548252  0.21835235
   0.06772601  0.18693063  0.15919844
   0.09672650  0.56208853  0.74070238
   0.43297545  0.68660197  0.66069032
   0.44285510  0.61049891  0.68163064
   0.55736731  0.13501799  0.71749774
   0.91387489  0.10868015  0.68107566
   0.40418079  0.06156882  0.24180323
   0.83800300  0.44981222  0.99404879
   0.15998918  0.29610707  0.40274927
   0.46101149  0.46267341  0.94940938
   0.05752375  0.78411563  0.45249012
   0.32638036  0.95331961  0.99993152
   0.44350058  0.28391677  0.94872085
   0.94624800  0.96230270  0.95161323
   0.67699926  0.79281449  0.40222093
   0.03782885  0.96296262  0.45424947
   0.55583052  0.46204629  0.44714582
   0.82376777  0.29271012  0.89935447
   0.66172468  0.94995531  0.49647938
   0.53620867  0.28323731  0.44592115
   0.17531605  0.45334710  0.49765317
   0.34048972  0.79635692  0.90628604
   0.96379663  0.78338526  0.94962665
   0.91466872  0.91351243  0.12089015
   0.82284572  0.90932478  0.29238203
   0.92331510  0.83183266  0.78066619
   0.58636429  0.41333370  0.61703838
   0.66944026  0.33494400  0.10481391
   0.17966047  0.83701132  0.11083505
   0.67743253  0.40917150  0.78916252
   0.57668407  0.33170561  0.27699473
   0.32883754  0.41106882  0.29142277
   0.08830565  0.83285085  0.28274156
   0.17166253  0.91114766  0.79463563
   0.32087830  0.33677209  0.60704530
   0.83072789  0.83506197  0.60827845
   0.07861681  0.91444516  0.62277425
   0.41233678  0.33262993  0.77887431
   0.42103320  0.41426210  0.11875766
   0.74179912  0.01550764  0.23548293
   0.76709574  0.72819279  0.66420720
   0.75896134  0.51536278  0.73315960
   0.73340297  0.22810006  0.16160391
   0.26076350  0.73081314  0.16699217
   0.26528410  0.51795693  0.23564876
   0.23537130  0.01801825  0.73833230
   0.24005276  0.23058600  0.66405721
   0.61352592  0.99922793  0.91712063
   0.88000962  0.03255008  0.54672903
   0.90810955  0.71176817  0.35466308
   0.62107431  0.53216981  0.04478683
   0.59236998  0.21137557  0.85211853
   0.38916957  0.74668063  0.48536869
   0.88735729  0.49938461  0.41485977
   0.86065325  0.24429217  0.48073758
   0.13750318  0.50222636  0.91667626
   0.12294301  0.71414997  0.85523794
   0.09436785  0.03461060  0.04779859
   0.37848489  0.21363775  0.35289651
   0.63917033  0.74411869  0.98295929
   0.36380166  0.00196149  0.41995868
   0.11167296  0.24672695  0.98240713
   0.40569365  0.53427505  0.54577032
 
 position of ions in cartesian coordinates  (Angst):
   7.12216240 31.01388822 -2.28540468
   5.92920671 30.63039997 -0.43982390
   7.24844956 25.36703701  3.03775325
   4.92780181 14.34995614  2.43737254
   5.99392331  9.70663409 -0.63321605
   2.11605228 26.12452528 -2.06906289
   6.11028496 13.96741167  4.28972594
   4.79027981  9.37247272  1.21489916
   2.02016595 14.38972234  1.03044085
   0.92985813 25.74218056 -0.21880231
   1.99967556 30.38197144  2.84940504
   1.90143582  9.45873401  2.65531443
   6.04797621 25.70093170  1.18730204
   0.79202507 30.71870615  1.00408176
   3.08969115  9.07786852  4.50445466
   3.21602681 14.72226061 -0.82298694
   5.39440936  0.81194297  0.28213155
   6.52345098  1.17669641  2.48381359
   6.74559792 22.51785064  1.21680792
   5.52248751 17.16229954  4.27387861
   5.29644473  5.85178257  5.95166624
   2.65036315 23.28190413  0.15022257
   6.65076028 16.80793780  2.07034704
   6.43091876  6.87769031  1.60495293
   1.58453283 17.22738601 -1.20024975
   1.52159859 22.93167861 -2.05411615
   1.29653297  0.91633490  5.76268103
   2.49984867  6.26159553  2.68038908
   5.60883144 22.86708463  3.41861558
   2.43552918  0.56148271  3.56337375
   1.36896533  6.62199402  4.88177986
   2.71897614 17.57127026  1.00345743
   5.41091953  2.27461744  0.06369167
   6.44605078  2.63334055  2.25816670
   6.67627171 21.05942761  1.43666701
   5.59939584 18.62013711  4.05428454
   5.36610255  5.06082587 -0.36974413
   2.62906377 21.81798790  0.36149398
   6.63397646 18.27172165  1.85818086
   6.40131988  5.41705224  1.82589645
   1.62121901 18.68882394 -1.41395794
   1.59162649 21.47377011 -1.83432739
   1.35816935  2.37392971  5.53509297
   2.42810284  4.80454806  2.90642222
   5.64041706 21.40555838  3.63386419
   2.39739606  2.02147196  3.34067404
   1.38979145  5.15933639  5.09996927
   2.65826587 19.03017279  0.78307851
   4.91225949  2.13013731  5.42996153
   6.93283073  3.50921549  3.21939527
   7.16720005 20.18736390  0.47374592
   5.11183369 20.15792869 -1.52839946
   4.87580509  3.51722726  5.21912043
   3.12525199 21.28797438  1.54058330
   7.13175774 18.79940936  0.67861152
   6.89683056  4.89553087  3.00882900
   1.12783311 18.55099895  3.95350736
   1.09950684 19.93829964  3.74863972
   0.86310023  3.91536918 -0.05447913
   2.92008923  3.93081648  1.94594638
   5.14595007 21.54515056 -1.73319578
   2.89117052  2.54447985  2.15778284
   0.89285978  5.30226841 -0.26624157
   3.15380245 19.89996006  1.74577244
   6.24587148 31.61332835 -1.38264659
   6.40596054 24.73126498  2.12819970
   5.79964277 14.94977851  3.34443387
   5.63510394  8.73696899  0.30737591
   1.80346343 25.14235128 -1.12418990
   2.37550136 15.35884436  0.08818450
   1.63904231 31.35279327  1.91053740
   2.21582193  8.47702673  3.60020907
   5.91449721  3.14393033  1.05527616
   6.14518800 20.54251956  2.63758569
   6.12998001 19.13643687  2.85355111
   5.89770054  4.54928042  0.83330879
   2.12085839 20.95569630 -0.63383425
   2.13004223 19.54970493 -0.41788166
   1.88770995  2.88719694  4.33194651
   1.89782164  4.29221030  4.10900060
   0.50918007 27.88583595  3.66168613
   7.53258729 28.20005882  0.37910267
   3.50551776 11.89225982  1.83930106
   4.50495367 11.53673591  5.10266674
   3.32055673  4.34651762  1.02698041
   7.47771648 18.10623566 -0.08280488
   7.24463790  5.59190408  3.76618382
   4.56604108  1.43334854  4.67196605
   4.79749983 22.23748074 -0.97242043
   4.71064126 19.73909973 -0.61112442
   0.70015440 20.35901220  2.83152128
   0.46279103  3.50036130  0.86524962
   7.56917022 20.60535860 -0.44396515
   0.54347558  5.99772253  0.49139005
   0.77604460 17.86001455  3.19321035
   3.47466939 21.97930129  2.30207475
   3.55398473 19.48036222  2.66349516
   4.47319026  3.93070390  4.29974380
   7.33445264  3.09521287  4.13864787
   3.24382040  1.84944150  1.40155151
   6.72537697 14.02543508  5.18252452
   1.28389882  9.40032248  1.76427128
   3.69972749 14.47490831  4.85257642
   0.46136559 25.30197418  0.65163912
   2.61903854 30.46214476  3.73730729
   3.55924891  8.63843806  5.37496213
   7.59395917 30.78808602  3.39403184
   5.43313937 25.61993479  0.29642744
   0.30323853 31.14065654  0.13602369
   4.46077282 14.78937068  1.56560514
   6.61119011  8.95872727  5.02554402
   5.31048709 30.68817861  0.45045966
   4.30335234  8.95154730  2.08463597
   1.40684683 14.47139525  1.92221677
   2.73233891 25.39930780  3.58676452
   7.73486082 24.94725331  3.90836846
   7.34060807 29.74879764 -1.90160454
   6.60364199 29.49765918 -0.76629344
   7.40996529 26.64182628  2.65926674
   4.70582984 13.08551049  2.82159849
   5.37265514 10.86743505 -0.30138376
   1.44162299 27.25704411 -1.74146477
   5.43670784 12.83490037  3.96085168
   4.62819901 10.64683265  0.83564108
   2.63901022 13.22848925  0.69635862
   0.70841439 27.00651694 -0.60351923
   1.37734200 29.22188748  2.51746168
   2.57512537 10.59204468  2.98200743
   6.66689670 26.86214993  1.52103816
   0.63059349 29.44408670  1.38247893
   3.30913540 10.34228576  4.11926883
   3.37896762 13.44794110 -0.44370398
   5.95348561  0.34984454  1.49570492
   6.15622977 23.33523293  2.20229022
   6.09100966 16.33974298  3.28110004
   5.88603586  7.34085055  0.38534766
   2.09256800 23.75197858 -1.06079232
   2.12891408 16.75583844  0.01614932
   1.88895955  0.09622610  4.78123686
   1.92646780  7.08669929  3.66835003
   4.92359719 32.01658286  3.05956560
   7.06269621  0.69889926  3.48337862
   7.28801068 23.00539800  0.22375247
   4.98442045 17.34741551 -1.27572067
   4.75407512  6.33426416  4.95613688
   3.12309009 24.05790750  0.97704013
   7.12152306 16.03031547  1.24392365
   6.90728166  7.65687373  2.42718171
   1.10331210 15.78804068  4.52187973
   0.98639028 22.74890930  3.49495797
   0.75735894  1.09832761  0.21090138
   3.03752903  6.74084254  1.68077220
   5.12949270 23.64265212  4.24258177
   2.91974922 -0.21571806  2.74380885
   0.89608391  7.40140836  5.70537469
   3.25577408 17.08199331  1.99859310
 


--------------------------------------------------------------------------------------------------------


 k-point  1 :   0.0000 0.0000 0.0000  plane waves:   56723
 k-point  2 :   0.3333 0.0000-0.0000  plane waves:   56733
 k-point  3 :   0.0000 0.0000 0.2500  plane waves:   56692
 k-point  4 :   0.3333-0.0000 0.2500  plane waves:   56756
 k-point  5 :  -0.3333 0.0000 0.2500  plane waves:   56755
 k-point  6 :   0.0000 0.0000 0.5000  plane waves:   56722
 k-point  7 :   0.3333 0.0000 0.5000  plane waves:   56807

 maximum and minimum number of plane-waves per node :     14233    14120

 maximum number of plane-waves:     56807
 maximum index in each direction: 
   IXMAX=   16   IYMAX=   65   IZMAX=   13
   IXMIN=  -16   IYMIN=  -65   IZMIN=  -13


 real space projection operators:
  total allocation   :      11251.66 KBytes
  max/ min on nodes  :       2820.73       2807.06


 parallel 3D FFT for wavefunctions:
    minimum data exchange during FFTs selected (reduces bandwidth)
 parallel 3D FFT for charge:
    minimum data exchange during FFTs selected (reduces bandwidth)


 total amount of memory used by VASP MPI-rank0    74643. kBytes
=======================================================================

   base      :      30000. kBytes
   nonlr-proj:       8967. kBytes
   fftplans  :       3920. kBytes
   grid      :      10932. kBytes
   one-center:       1213. kBytes
   wavefun   :      19611. kBytes
 
     INWAV:  cpu time    0.0002: real time    0.0002
 Broyden mixing: mesh for mixing (old mesh)
   NGX = 33   NGY =131   NGZ = 27
  (NGX  = 96   NGY  =392   NGZ  = 80)
  gives a total of 116721 points

 initial charge density was supplied:
 charge density of overlapping atoms calculated
 number of electron     604.0000000 magnetization      -0.0000000
 keeping initial charge density in first step


--------------------------------------------------------------------------------------------------------


 Maximum index for non-local projection operator          509
 Maximum index for augmentation-charges          399 (set IRDMAX)


--------------------------------------------------------------------------------------------------------


 First call to EWALD:  gamma=   0.149
 Maximum number of real-space cells 4x 1x 5
 Maximum number of reciprocal cells 2x 7x 2

    FEWALD:  cpu time    0.0172: real time    0.0172


--------------------------------------- Iteration      1(   1)  ---------------------------------------


    POTLOK:  cpu time    0.2656: real time    0.4561
    SETDIJ:  cpu time    0.0526: real time    0.0537
     EDDAV:  cpu time   23.9618: real time   24.0842
       DOS:  cpu time    0.0061: real time    0.0067
    --------------------------------------------
      LOOP:  cpu time   24.2862: real time   24.6008

 eigenvalue-minimisations  : 10752
 total energy-change (2. order) : 0.4510760E+04  (-0.3191098E+05)
 number of electron     604.0000000 magnetization      -0.0000000
 augmentation part      604.0000000 magnetization      -0.0000000

 Free energy of the ion-electron system (eV)
  ---------------------------------------------------
  alpha Z        PSCENC =       993.60014726
  Ewald energy   TEWEN  =     -9948.94795609
  -Hartree energ DENC   =    -17014.97814409
  -exchange      EXHF   =         0.00000000
  -V(xc)+E(xc)   XCENC  =      2125.84303974
  PAW double counting   =     22087.95224925   -22402.63741193
  entropy T*S    EENTRO =        -0.02793438
  eigenvalues    EBANDS =       -21.85432852
  atomic energy  EATOM  =     28691.81066055
  Solvation  Ediel_sol  =         0.00000000
  ---------------------------------------------------
  free energy    TOTEN  =      4510.76032178 eV

  energy without entropy =     4510.78825616  energy(sigma->0) =     4510.77428897


--------------------------------------------------------------------------------------------------------




--------------------------------------- Iteration      1(   2)  ---------------------------------------


     EDDAV:  cpu time   29.6554: real time   29.6908
       DOS:  cpu time    0.0049: real time    0.0049
    --------------------------------------------
      LOOP:  cpu time   29.6604: real time   29.6957

 eigenvalue-minimisations  : 13440
 total energy-change (2. order) :-0.5299636E+04  (-0.5124390E+04)
 number of electron     604.0000000 magnetization      -0.0000000
 augmentation part      604.0000000 magnetization      -0.0000000

 Free energy of the ion-electron system (eV)
  ---------------------------------------------------
  alpha Z        PSCENC =       993.60014726
  Ewald energy   TEWEN  =     -9948.94795609
  -Hartree energ DENC   =    -17014.97814409
  -exchange      EXHF   =         0.00000000
  -V(xc)+E(xc)   XCENC  =      2125.84303974
  PAW double counting   =     22087.95224925   -22402.63741193
  entropy T*S    EENTRO =        -0.01212568
  eigenvalues    EBANDS =     -5321.50660292
  atomic energy  EATOM  =     28691.81066055
  Solvation  Ediel_sol  =         0.00000000
  ---------------------------------------------------
  free energy    TOTEN  =      -788.87614392 eV

  energy without entropy =     -788.86401824  energy(sigma->0) =     -788.87008108


--------------------------------------------------------------------------------------------------------




--------------------------------------- Iteration      1(   3)  ---------------------------------------


     EDDAV:  cpu time   30.4856: real time   30.5173
       DOS:  cpu time    0.0040: real time    0.0041
    --------------------------------------------
      LOOP:  cpu time   30.4896: real time   30.5213

 eigenvalue-minimisations  : 13184
 total energy-change (2. order) :-0.4882715E+03  (-0.4826496E+03)
 number of electron     604.0000000 magnetization      -0.0000000
 augmentation part      604.0000000 magnetization      -0.0000000

 Free energy of the ion-electron system (eV)
  ---------------------------------------------------
  alpha Z        PSCENC =       993.60014726
  Ewald energy   TEWEN  =     -9948.94795609
  -Hartree energ DENC   =    -17014.97814409
  -exchange      EXHF   =         0.00000000
  -V(xc)+E(xc)   XCENC  =      2125.84303974
  PAW double counting   =     22087.95224925   -22402.63741193
  entropy T*S    EENTRO =        -0.05305098
  eigenvalues    EBANDS =     -5809.73716304
  atomic energy  EATOM  =     28691.81066055
  Solvation  Ediel_sol  =         0.00000000
  ---------------------------------------------------
  free energy    TOTEN  =     -1277.14762934 eV

  energy without entropy =    -1277.09457836  energy(sigma->0) =    -1277.12110385


--------------------------------------------------------------------------------------------------------




--------------------------------------- Iteration      1(   4)  ---------------------------------------


     EDDAV:  cpu time   30.3677: real time   30.4026
       DOS:  cpu time    0.0041: real time    0.0041
    --------------------------------------------
      LOOP:  cpu time   30.3718: real time   30.4067

 eigenvalue-minimisations  : 13440
 total energy-change (2. order) :-0.1359148E+02  (-0.1348240E+02)
 number of electron     604.0000000 magnetization      -0.0000000
 augmentation part      604.0000000 magnetization      -0.0000000

 Free energy of the ion-electron system (eV)
  ---------------------------------------------------
  alpha Z        PSCENC =       993.60014726
  Ewald energy   TEWEN  =     -9948.94795609
  -Hartree energ DENC   =    -17014.97814409
  -exchange      EXHF   =         0.00000000
  -V(xc)+E(xc)   XCENC  =      2125.84303974
  PAW double counting   =     22087.95224925   -22402.63741193
  entropy T*S    EENTRO =        -0.04386050
  eigenvalues    EBANDS =     -5823.33783228
  atomic energy  EATOM  =     28691.81066055
  Solvation  Ediel_sol  =         0.00000000
  ---------------------------------------------------
  free energy    TOTEN  =     -1290.73910810 eV

  energy without entropy =    -1290.69524760  energy(sigma->0) =    -1290.71717785


--------------------------------------------------------------------------------------------------------




--------------------------------------- Iteration      1(   5)  ---------------------------------------


     EDDAV:  cpu time   33.5717: real time   33.6061
       DOS:  cpu time    0.0043: real time    0.0043
    CHARGE:  cpu time    0.4856: real time    0.4861
    MIXING:  cpu time    0.0157: real time    0.0194
    --------------------------------------------
      LOOP:  cpu time   34.0773: real time   34.1159

 eigenvalue-minimisations  : 14400
 total energy-change (2. order) :-0.5209285E+00  (-0.5206082E+00)
 number of electron     603.9999972 magnetization      -0.0001901
 augmentation part       35.8138188 magnetization       0.0001437

 Broyden mixing:
  rms(total) = 0.91458E+01    rms(broyden)= 0.91453E+01
  rms(prec ) = 0.97657E+01
  weight for this iteration     100.00

 Free energy of the ion-electron system (eV)
  ---------------------------------------------------
  alpha Z        PSCENC =       993.60014726
  Ewald energy   TEWEN  =     -9948.94795609
  -Hartree energ DENC   =    -17014.97814409
  -exchange      EXHF   =         0.00000000
  -V(xc)+E(xc)   XCENC  =      2125.84303974
  PAW double counting   =     22087.95224925   -22402.63741193
  entropy T*S    EENTRO =        -0.04354132
  eigenvalues    EBANDS =     -5823.85907992
  atomic energy  EATOM  =     28691.81066055
  Solvation  Ediel_sol  =         0.00000000
  ---------------------------------------------------
  free energy    TOTEN  =     -1291.26003656 eV

  energy without entropy =    -1291.21649524  energy(sigma->0) =    -1291.23826590


--------------------------------------------------------------------------------------------------------




--------------------------------------- Iteration      1(   6)  ---------------------------------------


    POTLOK:  cpu time    0.1858: real time    0.1977
    SETDIJ:  cpu time    0.0507: real time    0.0507
     EDDAV:  cpu time   43.3320: real time   43.3777
       DOS:  cpu time    0.0038: real time    0.0038
    CHARGE:  cpu time    0.5056: real time    0.5064
    MIXING:  cpu time    0.0069: real time    0.0180
    --------------------------------------------
      LOOP:  cpu time   44.0847: real time   44.1544

 eigenvalue-minimisations  : 18304
 total energy-change (2. order) :-0.3046780E+03  (-0.3713476E+03)
 number of electron     603.9999983 magnetization       0.0022972
 augmentation part       55.8045525 magnetization      -0.2480326

 Broyden mixing:
  rms(total) = 0.25107E+02    rms(broyden)= 0.25107E+02
  rms(prec ) = 0.25487E+02
  weight for this iteration     100.00

 eigenvalues of (default mixing * dielectric matrix)
  average eigenvalue GAMMA=   0.0969
  0.0969

 Free energy of the ion-electron system (eV)
  ---------------------------------------------------
  alpha Z        PSCENC =       993.60014726
  Ewald energy   TEWEN  =     -9948.94795609
  -Hartree energ DENC   =    -17524.96882973
  -exchange      EXHF   =         0.00000000
  -V(xc)+E(xc)   XCENC  =      2158.99279956
  PAW double counting   =     32846.41808818   -33062.61152657
  entropy T*S    EENTRO =        -0.01097929
  eigenvalues    EBANDS =     -5750.22043821
  atomic energy  EATOM  =     28691.81066055
  Solvation  Ediel_sol  =         0.00000000
  ---------------------------------------------------
  free energy    TOTEN  =     -1595.93803434 eV

  energy without entropy =    -1595.92705505  energy(sigma->0) =    -1595.93254470


--------------------------------------------------------------------------------------------------------




--------------------------------------- Iteration      1(   7)  ---------------------------------------


    POTLOK:  cpu time    0.1666: real time    0.1666
    SETDIJ:  cpu time    0.0506: real time    0.0506
     EDDAV:  cpu time   30.5440: real time   30.5748
       DOS:  cpu time    0.0038: real time    0.0038
    CHARGE:  cpu time    0.5022: real time    0.5022
    MIXING:  cpu time    0.0048: real time    0.0093
    --------------------------------------------
      LOOP:  cpu time   31.2719: real time   31.3073

 eigenvalue-minimisations  : 13376
 total energy-change (2. order) : 0.1215287E+03  (-0.2929994E+02)
 number of electron     603.9999978 magnetization      -0.0119889
 augmentation part       55.5935981 magnetization       0.0036467

 Broyden mixing:
  rms(total) = 0.16531E+02    rms(broyden)= 0.16531E+02
  rms(prec ) = 0.16865E+02
  weight for this iteration     100.00

 eigenvalues of (default mixing * dielectric matrix)
  average eigenvalue GAMMA=   0.4360
  0.4360  0.4360

 Free energy of the ion-electron system (eV)
  ---------------------------------------------------
  alpha Z        PSCENC =       993.60014726
  Ewald energy   TEWEN  =     -9948.94795609
  -Hartree energ DENC   =    -17591.76830673
  -exchange      EXHF   =         0.00000000
  -V(xc)+E(xc)   XCENC  =      2162.35149096
  PAW double counting   =     34476.56007711   -34720.55570871
  entropy T*S    EENTRO =        -0.01254847
  eigenvalues    EBANDS =     -5537.44717173
  atomic energy  EATOM  =     28691.81066055
  Solvation  Ediel_sol  =         0.00000000
  ---------------------------------------------------
  free energy    TOTEN  =     -1474.40931587 eV

  energy without entropy =    -1474.39676739  energy(sigma->0) =    -1474.40304163


--------------------------------------------------------------------------------------------------------




--------------------------------------- Iteration      1(   8)  ---------------------------------------


    POTLOK:  cpu time    0.1663: real time    0.1663
    SETDIJ:  cpu time    0.0496: real time    0.0504
     EDDAV:  cpu time   34.5966: real time   34.6316
       DOS:  cpu time    0.0046: real time    0.0047
    CHARGE:  cpu time    0.4210: real time    0.4210
    MIXING:  cpu time    0.0040: real time    0.0053
    --------------------------------------------
      LOOP:  cpu time   35.2422: real time   35.2793

 eigenvalue-minimisations  : 15040
 total energy-change (2. order) : 0.2597719E+03  (-0.3038158E+02)
 number of electron     603.9999986 magnetization      -0.0110272
 augmentation part       52.9361482 magnetization      -0.0320729

 Broyden mixing:
  rms(total) = 0.63819E+01    rms(broyden)= 0.63818E+01
  rms(prec ) = 0.71051E+01
  weight for this iteration     100.00

 eigenvalues of (default mixing * dielectric matrix)
  average eigenvalue GAMMA=   0.5303
  0.6066  0.6066  0.3777

 Free energy of the ion-electron system (eV)
  ---------------------------------------------------
  alpha Z        PSCENC =       993.60014726
  Ewald energy   TEWEN  =     -9948.94795609
  -Hartree energ DENC   =    -17826.01584317
  -exchange      EXHF   =         0.00000000
  -V(xc)+E(xc)   XCENC  =      2179.10334842
  PAW double counting   =     38471.65084264   -38794.58381861
  entropy T*S    EENTRO =        -0.01795304
  eigenvalues    EBANDS =     -4981.23679551
  atomic energy  EATOM  =     28691.81066055
  Solvation  Ediel_sol  =         0.00000000
  ---------------------------------------------------
  free energy    TOTEN  =     -1214.63736755 eV

  energy without entropy =    -1214.61941452  energy(sigma->0) =    -1214.62839104


--------------------------------------------------------------------------------------------------------




--------------------------------------- Iteration      1(   9)  ---------------------------------------


    POTLOK:  cpu time    0.3215: real time    0.3223
    SETDIJ:  cpu time    0.0504: real time    0.0504
     EDDAV:  cpu time   36.0867: real time   36.1267
       DOS:  cpu time    0.0064: real time    0.0064
    CHARGE:  cpu time    0.4237: real time    0.4246
    MIXING:  cpu time    0.0034: real time    0.0034
    --------------------------------------------
      LOOP:  cpu time   36.8921: real time   36.9339

 eigenvalue-minimisations  : 16128
 total energy-change (2. order) : 0.2807010E+02  (-0.9752858E+02)
 number of electron     603.9999969 magnetization      -0.0236943
 augmentation part       39.2156201 magnetization       0.0859290

 Broyden mixing:
  rms(total) = 0.48188E+01    rms(broyden)= 0.48184E+01
  rms(prec ) = 0.63380E+01
  weight for this iteration     100.00

 eigenvalues of (default mixing * dielectric matrix)
  average eigenvalue GAMMA=   0.5138
  0.8024  0.4808  0.4808  0.2911

 Free energy of the ion-electron system (eV)
  ---------------------------------------------------
  alpha Z        PSCENC =       993.60014726
  Ewald energy   TEWEN  =     -9948.94795609
  -Hartree energ DENC   =    -17960.89167306
  -exchange      EXHF   =         0.00000000
  -V(xc)+E(xc)   XCENC  =      2187.22259855
  PAW double counting   =     41240.19473552   -41592.95322046
  entropy T*S    EENTRO =        -0.07791245
  eigenvalues    EBANDS =     -4796.52464689
  atomic energy  EATOM  =     28691.81066055
  Solvation  Ediel_sol  =         0.00000000
  ---------------------------------------------------
  free energy    TOTEN  =     -1186.56726708 eV

  energy without entropy =    -1186.48935463  energy(sigma->0) =    -1186.52831085


--------------------------------------------------------------------------------------------------------




--------------------------------------- Iteration      1(  10)  ---------------------------------------


    POTLOK:  cpu time    0.1660: real time    0.1660
    SETDIJ:  cpu time    0.0504: real time    0.0504
     EDDAV:  cpu time   33.2721: real time   33.3073
       DOS:  cpu time    0.0039: real time    0.0039
    CHARGE:  cpu time    0.5020: real time    0.5021
    MIXING:  cpu time    0.0043: real time    0.0043
    --------------------------------------------
      LOOP:  cpu time   33.9986: real time   34.0339

 eigenvalue-minimisations  : 14912
 total energy-change (2. order) : 0.2259425E+01  (-0.1031658E+03)
 number of electron     603.9999968 magnetization      -0.0298649
 augmentation part       39.0030528 magnetization       0.2927874

 Broyden mixing:
  rms(total) = 0.71758E+01    rms(broyden)= 0.71757E+01
  rms(prec ) = 0.83722E+01
  weight for this iteration     100.00

 eigenvalues of (default mixing * dielectric matrix)
  average eigenvalue GAMMA=   0.4907
  1.0831  0.4669  0.4669  0.3017  0.1347

 Free energy of the ion-electron system (eV)
  ---------------------------------------------------
  alpha Z        PSCENC =       993.60014726
  Ewald energy   TEWEN  =     -9948.94795609
  -Hartree energ DENC   =    -18064.74720740
  -exchange      EXHF   =         0.00000000
  -V(xc)+E(xc)   XCENC  =      2191.67519570
  PAW double counting   =     45465.68625843   -45820.38317822
  entropy T*S    EENTRO =        -0.01969543
  eigenvalues    EBANDS =     -4692.98206701
  atomic energy  EATOM  =     28691.81066055
  Solvation  Ediel_sol  =         0.00000000
  ---------------------------------------------------
  free energy    TOTEN  =     -1184.30784222 eV

  energy without entropy =    -1184.28814678  energy(sigma->0) =    -1184.29799450


--------------------------------------------------------------------------------------------------------




--------------------------------------- Iteration      1(  11)  ---------------------------------------


    POTLOK:  cpu time    0.1664: real time    0.1665
    SETDIJ:  cpu time    0.0495: real time    0.0503
     EDDAV:  cpu time   37.9914: real time   38.0332
       DOS:  cpu time    0.0043: real time    0.0043
    CHARGE:  cpu time    0.4204: real time    0.4205
    MIXING:  cpu time    0.0039: real time    0.0039
    --------------------------------------------
      LOOP:  cpu time   38.6359: real time   38.6787

 eigenvalue-minimisations  : 16576
 total energy-change (2. order) :-0.2298962E+02  (-0.1025157E+03)
 number of electron     603.9999982 magnetization      -0.0421477
 augmentation part       39.7689911 magnetization      -0.2019739

 Broyden mixing:
  rms(total) = 0.74937E+01    rms(broyden)= 0.74936E+01
  rms(prec ) = 0.87223E+01
  weight for this iteration     100.00

 eigenvalues of (default mixing * dielectric matrix)
  average eigenvalue GAMMA=   0.5804
  1.8818  0.4819  0.4819  0.3248  0.2412  0.0705

 Free energy of the ion-electron system (eV)
  ---------------------------------------------------
  alpha Z        PSCENC =       993.60014726
  Ewald energy   TEWEN  =     -9948.94795609
  -Hartree energ DENC   =    -18108.54299227
  -exchange      EXHF   =         0.00000000
  -V(xc)+E(xc)   XCENC  =      2195.43524966
  PAW double counting   =     47314.89077506   -47667.86584353
  entropy T*S    EENTRO =        -0.00420443
  eigenvalues    EBANDS =     -4677.67329560
  atomic energy  EATOM  =     28691.81066055
  Solvation  Ediel_sol  =         0.00000000
  ---------------------------------------------------
  free energy    TOTEN  =     -1207.29745940 eV

  energy without entropy =    -1207.29325496  energy(sigma->0) =    -1207.29535718


--------------------------------------------------------------------------------------------------------




--------------------------------------- Iteration      1(  12)  ---------------------------------------


    POTLOK:  cpu time    0.1664: real time    0.1664
    SETDIJ:  cpu time    0.0502: real time    0.0502
     EDDAV:  cpu time   33.4722: real time   33.5077
       DOS:  cpu time    0.0048: real time    0.0048
    CHARGE:  cpu time    0.4217: real time    0.4218
    MIXING:  cpu time    0.0038: real time    0.0038
    --------------------------------------------
      LOOP:  cpu time   34.1191: real time   34.1547

 eigenvalue-minimisations  : 14784
 total energy-change (2. order) : 0.6154333E+02  (-0.2199631E+02)
 number of electron     603.9999974 magnetization      -0.0459852
 augmentation part       47.3620511 magnetization      -0.2876074

 Broyden mixing:
  rms(total) = 0.28121E+01    rms(broyden)= 0.28119E+01
  rms(prec ) = 0.32097E+01
  weight for this iteration     100.00

 eigenvalues of (default mixing * dielectric matrix)
  average eigenvalue GAMMA=   0.5492
  1.8560  0.4952  0.4952  0.4339  0.2451  0.2451  0.0737

 Free energy of the ion-electron system (eV)
  ---------------------------------------------------
  alpha Z        PSCENC =       993.60014726
  Ewald energy   TEWEN  =     -9948.94795609
  -Hartree energ DENC   =    -18246.86434670
  -exchange      EXHF   =         0.00000000
  -V(xc)+E(xc)   XCENC  =      2208.14792090
  PAW double counting   =     53349.86686685   -53698.38209888
  entropy T*S    EENTRO =        -0.05334238
  eigenvalues    EBANDS =     -4494.93198008
  atomic energy  EATOM  =     28691.81066055
  Solvation  Ediel_sol  =         0.00000000
  ---------------------------------------------------
  free energy    TOTEN  =     -1145.75412857 eV

  energy without entropy =    -1145.70078619  energy(sigma->0) =    -1145.72745738


--------------------------------------------------------------------------------------------------------




--------------------------------------- Iteration      1(  13)  ---------------------------------------


    POTLOK:  cpu time    0.2366: real time    0.2366
    SETDIJ:  cpu time    0.0517: real time    0.0517
     EDDAV:  cpu time   33.3203: real time   33.3559
       DOS:  cpu time    0.0047: real time    0.0047
    CHARGE:  cpu time    0.4225: real time    0.4226
    MIXING:  cpu time    0.0041: real time    0.0041
    --------------------------------------------
      LOOP:  cpu time   34.0399: real time   34.0755

 eigenvalue-minimisations  : 15296
 total energy-change (2. order) :-0.4783515E+01  (-0.7042413E+01)
 number of electron     603.9999973 magnetization      -0.0432227
 augmentation part       45.9355591 magnetization      -0.5287621

 Broyden mixing:
  rms(total) = 0.34898E+01    rms(broyden)= 0.34898E+01
  rms(prec ) = 0.37092E+01
  weight for this iteration     100.00

 eigenvalues of (default mixing * dielectric matrix)
  average eigenvalue GAMMA=   0.4991
  1.8258  0.4971  0.4971  0.4999  0.2480  0.2480  0.0728  0.1044

 Free energy of the ion-electron system (eV)
  ---------------------------------------------------
  alpha Z        PSCENC =       993.60014726
  Ewald energy   TEWEN  =     -9948.94795609
  -Hartree energ DENC   =    -18264.82378501
  -exchange      EXHF   =         0.00000000
  -V(xc)+E(xc)   XCENC  =      2206.75413071
  PAW double counting   =     54102.12002045   -54449.91785197
  entropy T*S    EENTRO =        -0.01746629
  eigenvalues    EBANDS =     -4481.11554358
  atomic energy  EATOM  =     28691.81066055
  Solvation  Ediel_sol  =         0.00000000
  ---------------------------------------------------
  free energy    TOTEN  =     -1150.53764398 eV

  energy without entropy =    -1150.52017769  energy(sigma->0) =    -1150.52891084


--------------------------------------------------------------------------------------------------------




[...]
   80            fft3d_mpi                            16.659108                     3710   5
   81              fftbas_plan_mpi                      16.645514                   3710   6
   82                dfftw_execute                         6.934103                11130   7
   83                map_forward                           7.699566                 7420   7
   84                  map_gather                            1.653760               3710   8
   85                  m_alltoallv_z                         2.781940               3710   8
   86                  map_scatter                           1.934582               3710   8
   87          pw_charge                             1.740169                       3710   4
   88          fft3d_mpi                             0.360928                        106   4
   89            fftbas_plan_mpi                       0.328867                      106   5
   90              dfftw_execute                         0.098183                    318   6
   91              map_backward                          0.170884                    212   6
   92                map_gather                            0.045332                  212   7
   93                m_alltoallv_z                         0.120301                  212   7
   94                map_scatter                           0.002669                  212   7
   95        depsum                                0.137526                           53   3
   96        fft3d_mpi                             0.444333                          106   3
   97          fftbas_plan_mpi                       0.433635                        106   4
   98            dfftw_execute                         0.052876                      318   5
   99            map_backward                          0.293913                      212   5
  100              map_gather                            0.014551                    106   6
  101              m_alltoallv_z                         0.273556                    106   6
  102              map_scatter                           0.004207                    106   6
  103      brmix                                 0.464913                             53   2
  104        brpre                                 0.006028                          106   3
  105        setg0                                 0.031345                           55   3
  106        broyd                                 0.324984                           53   3
  107          brsav                                 0.007271                       1832   4
  108          brget                                 0.025789                       7320   4
  109      force_and_stress                     18.121203                              1   2
  110        set_charge                            0.501911                            1   3
  111          soft_charge                           0.456345                          1   4
  112            fftwav_mpi                            0.320037                       70   5
  113              fft3d_mpi                             0.290263                     70   6
  114                fftbas_plan_mpi                       0.290030                   70   7
  115                  dfftw_execute                         0.132647                210   8
  116                  map_forward                           0.120442                140   8
  117                    map_gather                            0.033453               70   9
  118                    m_alltoallv_z                         0.028594               70   9
  119                    map_scatter                           0.035711               70   9
  120            pw_charge                             0.035733                       70   5
  121            fft3d_mpi                             0.028797                        2   5
  122              fftbas_plan_mpi                       0.028183                      2   6
  123                dfftw_execute                         0.001926                    6   7
  124                map_backward                          0.025157                    4   7
  125                  map_gather                            0.000793                  4   8
  126                  m_alltoallv_z                         0.024272                  4   8
  127                  map_scatter                           0.000047                  4   8
  128          depsum                                0.002633                          1   4
  129          fft3d_mpi                             0.007795                          2   4
  130            fftbas_plan_mpi                       0.007618                        2   5
  131              dfftw_execute                         0.000996                      6   6
  132              map_backward                          0.004955                      4   6
  133                map_gather                            0.000260                    2   7
  134                m_alltoallv_z                         0.004584                    2   7
  135                map_scatter                           0.000077                    2   7
  136        forloc                                0.038666                            1   3
  137        fornlr                                2.018753                            1   3
  138          rspher_all                            0.085159                          3   4
  139          phaser                                0.276597                         21   4
  140          rpro_isp                              1.567456                         21   4
  141            fftwav_mpi                            1.134282                      252   5
  142              fft3d_mpi                             1.015889                    252   6
  143                fftbas_plan_mpi                       1.015038                  252   7
  144                  dfftw_execute                         0.465605                756   8
  145                  map_forward                           0.413489                504   8
  146                    map_gather                            0.105443              252   9
  147                    m_alltoallv_z                         0.101524              252   9
  148                    map_scatter                           0.126963              252   9
  149            rpromu                                0.429899                       84   5
  150              crrexp_mul_wave                       0.203137                  39312   6
  151              rpromu_gemm                           0.147645                  13104   6
  152        fordep                                0.188856                            1   3
  153          setdij_                               0.188332                          6   4
  154        setdij_                               0.628192                           20   3
  155        set_dd_paw                            0.019225                            1   3
  156        strkin                                0.008298                            1   3
  157        strelo                                0.002524                            1   3
  158        strnlr                                6.017275                            1   3
  159          rspher_all                            0.254152                          9   4
  160          phaser                                0.831292                         63   4
  161          rpro_isp                              4.656838                         63   4
  162            fftwav_mpi                            3.354783                      756   5
  163              fft3d_mpi                             3.023580                    756   6
  164                fftbas_plan_mpi                       3.020889                  756   7
  165                  dfftw_execute                         1.384416               2268   8
  166                  map_forward                           1.228061               1512   8
  167                    map_gather                            0.311464              756   9
  168                    m_alltoallv_z                         0.298549              756   9
  169                    map_scatter                           0.380429              756   9
  170            rpromu                                1.288512                      252   5
  171              crrexp_mul_wave                       0.611733                 117936   6
  172              rpromu_gemm                           0.446823                  39312   6
  173        fft3d_mpi                             0.076897                           22   3
  174          fftbas_plan_mpi                       0.074640                         22   4
  175            dfftw_execute                         0.011608                       66   5
  176            map_forward                           0.023178                       20   5
  177              map_gather                            0.000327                     10   6
  178              m_alltoallv_z                         0.020776                     10   6
  179              map_scatter                           0.001915                     10   6
  180            map_backward                          0.023207                       24   5
  181              map_gather                            0.001849                     12   6
  182              m_alltoallv_z                         0.020700                     12   6
  183              map_scatter                           0.000470                     12   6
  184        forhar                                0.068502                            2   3
  185        strehar                               0.002175                            1   3
  186        chggra                                0.014206                            1   3
  187          fft3d_mpi                             0.011583                          3   4
  188            fftbas_plan_mpi                       0.011304                        3   5
  189              dfftw_execute                         0.001748                      9   6
  190              map_forward                           0.005635                      4   6
  191                map_gather                            0.000055                    2   7
  192                m_alltoallv_z                         0.005184                    2   7
  193                map_scatter                           0.000362                    2   7
  194              map_backward                          0.001727                      2   6
  195                map_gather                            0.000154                    1   7
  196                m_alltoallv_z                         0.001519                    1   7
  197                map_scatter                           0.000038                    1   7
  198        brmix                                 0.012596                            1   3
  199          brpre                                 0.000093                          2   4
  200          setg0                                 0.000684                          1   4
  201          broyd                                 0.010184                          1   4
  202            brget                                 0.000846                      224   5
  203            brsav                                 0.000190                       48   5
 
 Flat profile
 ============
 
             routine name                   CPU           calls
 ---------------------------------------------------------------
 eddav                                1255.989206          58
 total_time                            304.319423           1
 redis_pw                              133.890385       50447
 dfftw_execute                         101.150759      166029
 orth1                                  75.999716       53751
 m_alltoallv_z                          44.451375       55561
 redis_proj                             35.620764       63478
 fftbas_plan_mpi                        31.170540       55345
 map_scatter                            29.335340       55561
 map_gather                             26.437189       55561
 crrexp_mul_work_add                    23.809984     2790684
 racc0                                  23.435192       17889
 fftwav_mpi                             22.079590       35778
 rpro1                                  15.749265       13017
 map_forward                            14.511127       73130
 vhamil                                 12.892090       17889
 phaser                                 11.907724         903
 crrexp_mul_wave                        11.692191     2201004
 lincom                                  9.627070         826
 force_and_stress                        8.523126           1
 w1_copy                                 3.678108       53667
 fftext_mpi                              2.937872       17889
 eccp                                    2.624586        4872
 setdij_                                 2.589275          82
 set_charge                              1.882081          54
 kinhamil                                1.807922       17889
 pw_charge                               1.775903        3780
 soft_charge                             1.530882          54
 set_dd_paw                              1.083366          56
 apply_precond                           1.033881       13017
 overl                                   1.015146       30920
 overl1                                  0.778895       17889
 rpromu_gemm                             0.670185       56784
 setup_precond                           0.608703        4872
 fft3d_mpi                               0.425870       55343
 rspher_all                              0.392723          14
 map_backward                            0.367040       37556
 rpromu                                  0.339455         364
 broyd                                   0.301071          54
 choleski                                0.288774          14
 strnlr                                  0.274993           1
 hamiltmu                                0.267667       17889
 orthch                                  0.222036           1
 depsum                                  0.140159          54
 raccmu_                                 0.126206       17889
 brmix                                   0.104192          54
 fornlr                                  0.089541           1
 w1_projall                              0.086283       13017
 forhar                                  0.068502           2
 forloc                                  0.038666           1
 setg0                                   0.032029          56
 brget                                   0.026635        7544
 rpro_isp                                0.018055          91
 truncate_high_frequency_w1              0.015034       22761
 brgrid                                  0.009366           1
 strkin                                  0.008298           1
 brsav                                   0.007462        1880
 brpre                                   0.006121         108
 chggra                                  0.002623           1
 strelo                                  0.002524           1
 strehar                                 0.002175           1
 fordep                                  0.000524           1
 redis_pw_over_bands                     0.000000           1
 ---------------------------------------------------------------
  summed up times    2220.27288508415     
 
 Accumulative profile
 ====================
 
             routine name                   CPU           calls
 ---------------------------------------------------------------
 total_time                           2220.272885           1
 eddav                                1862.187364          58
 fft3d_mpi                             247.785999       55343
 fftbas_plan_mpi                       247.423371       55345
 fftwav_mpi                            193.256914       35778
 hamiltmu                              135.991493       17889
 redis_pw                              133.890385       50447
 dfftw_execute                         101.150759      166029
 map_forward                            86.306350       73130
 orth1                                  75.999716       53751
 kinhamil                               74.681459       17889
 fftext_mpi                             72.873537       17889
 raccmu_                                48.150277       17889
 racc0                                  47.245176       17889
 m_alltoallv_z                          44.451375       55561
 redis_proj                             35.620764       63478
 map_scatter                            29.335340       55561
 map_backward                           28.795722       37556
 w1_projall                             26.645475       13017
 rpro1                                  26.559192       13017
 map_gather                             26.437189       55561
 set_charge                             24.992442          54
 crrexp_mul_work_add                    23.809984     2790684
 soft_charge                            22.518075          54
 force_and_stress                       18.121203           1
 vhamil                                 12.892090       17889
 phaser                                 11.907724         903
 crrexp_mul_wave                        11.692191     2201004
 lincom                                  9.627070         826
 rpro_isp                                6.813059          91
 strnlr                                  6.017275           1
 w1_copy                                 3.678108       53667
 eccp                                    2.624586        4872
 setdij_                                 2.589275          82
 fornlr                                  2.018753           1
 rpromu                                  1.891904         364
 pw_charge                               1.775903        3780
 orthch                                  1.299139           1
 set_dd_paw                              1.083366          56
 apply_precond                           1.033881       13017
 overl                                   1.015146       30920
 overl1                                  0.778895       17889
 rpromu_gemm                             0.670185       56784
 setup_precond                           0.608703        4872
 brmix                                   0.477509          54
 rspher_all                              0.392723          14
 broyd                                   0.335168          54
 choleski                                0.288774          14
 fordep                                  0.188856           1
 depsum                                  0.140159          54
 forhar                                  0.068502           2
 forloc                                  0.038666           1
 setg0                                   0.032029          56
 brget                                   0.026635        7544
 truncate_high_frequency_w1              0.015034       22761
 chggra                                  0.014206           1
 brgrid                                  0.009366           1
 strkin                                  0.008298           1
 brsav                                   0.007462        1880
 brpre                                   0.006121         108
 strelo                                  0.002524           1
 strehar                                 0.002175           1
 redis_pw_over_bands                     0.000000           1
 ---------------------------------------------------------------
 
Profiling took   3.530100  2.002965  0.012650  0.012262 seconds
Profiling took   4.024698 seconds
