       N       E                     dE             d eps       ncg     rms          rms(c)
DAV:   1     0.544918008468E+04    0.54492E+04   -0.27299E+05  4608   0.144E+03
DAV:   2    -0.320726069424E+03   -0.57699E+04   -0.55690E+04  6144   0.322E+02
DAV:   3    -0.125574374306E+04   -0.93502E+03   -0.92620E+03  5568   0.138E+02
DAV:   4    -0.129521929832E+04   -0.39476E+02   -0.39151E+02  7008   0.414E+01
DAV:   5    -0.129583748090E+04   -0.61818E+00   -0.61480E+00  6048   0.394E+00
DAV:   6    -0.129587110502E+04   -0.33624E-01   -0.33585E-01  7104   0.115E+00
DAV:   7    -0.129587169073E+04   -0.58571E-03   -0.58516E-03  6112   0.114E-01
DAV:   8    -0.129587171562E+04   -0.24886E-04   -0.24881E-04  7104   0.250E-02    0.819E+01
DAV:   9    -0.142650337596E+04   -0.13063E+03   -0.16602E+03  7136   0.663E+01    0.232E+02
DAV:  10    -0.133463128807E+04    0.91872E+02   -0.14924E+02  6112   0.398E+01    0.144E+02
DAV:  11    -0.116197695882E+04    0.17265E+03   -0.28183E+02  6816   0.129E+02    0.532E+01
DAV:  12    -0.116831719842E+04   -0.63402E+01   -0.17692E+02  5792   0.162E+01    0.532E+01
DAV:  13    -0.118887211253E+04   -0.20555E+02   -0.58002E+02  6976   0.297E+01    0.732E+01
DAV:  14    -0.114258776463E+04    0.46284E+02   -0.11211E+02  6240   0.211E+01    0.207E+01
DAV:  15    -0.114914235490E+04   -0.65546E+01   -0.15660E+01  5824   0.768E+00    0.217E+01
DAV:  16    -0.115511540288E+04   -0.59730E+01   -0.53276E+01  6592   0.107E+01    0.340E+01
DAV:  17    -0.115496721551E+04    0.14819E+00   -0.31682E+01  6560   0.897E+00    0.151E+01
DAV:  18    -0.115955277416E+04   -0.45856E+01   -0.18396E+01  6336   0.694E+00    0.244E+01
DAV:  19    -0.116161595675E+04   -0.20632E+01   -0.10847E+01  6112   0.613E+00    0.137E+01
DAV:  20    -0.116482640562E+04   -0.32104E+01   -0.16833E+00  5824   0.244E+00    0.126E+01
DAV:  21    -0.116667848517E+04   -0.18521E+01   -0.21567E+00  5984   0.261E+00    0.126E+01
DAV:  22    -0.116695453379E+04   -0.27605E+00   -0.12977E-01  5760   0.731E-01    0.126E+01
DAV:  23    -0.116745623745E+04   -0.50170E+00   -0.32684E-01  6144   0.910E-01    0.109E+01
DAV:  24    -0.116889431861E+04   -0.14381E+01   -0.18169E+00  5792   0.168E+00    0.118E+01
DAV:  25    -0.116976786465E+04   -0.87355E+00   -0.21364E-01  5696   0.125E+00    0.113E+01
DAV:  26    -0.117229428396E+04   -0.25264E+01   -0.10515E+00  5504   0.253E+00    0.892E+00
DAV:  27    -0.117294042208E+04   -0.64614E+00   -0.20105E-01  6112   0.941E-01    0.863E+00
DAV:  28    -0.117346659541E+04   -0.52617E+00   -0.87867E-02  5984   0.894E-01    0.773E+00
DAV:  29    -0.117416401729E+04   -0.69742E+00   -0.19861E-01  6080   0.128E+00    0.656E+00
DAV:  30    -0.117433938119E+04   -0.17536E+00   -0.39502E-02  6656   0.517E-01    0.660E+00
DAV:  31    -0.117443016227E+04   -0.90781E-01   -0.11137E-02  6240   0.321E-01    0.642E+00
DAV:  32    -0.117457299402E+04   -0.14283E+00   -0.27510E-02  6112   0.493E-01    0.574E+00
DAV:  33    -0.117462058980E+04   -0.47596E-01   -0.70155E-02  6720   0.528E-01    0.435E+00
DAV:  34    -0.117463240744E+04   -0.11818E-01   -0.14779E-02  6016   0.270E-01    0.414E+00
DAV:  35    -0.117463528525E+04   -0.28778E-02   -0.72540E-04  6016   0.835E-02    0.413E+00
DAV:  36    -0.117463515637E+04    0.12888E-03   -0.22495E-04  6400   0.357E-02    0.415E+00
DAV:  37    -0.117463869745E+04   -0.35411E-02   -0.93075E-04  6336   0.717E-02    0.415E+00
DAV:  38    -0.117463935607E+04   -0.65862E-03   -0.72679E-05  6240   0.251E-02    0.414E+00
DAV:  39    -0.117464547407E+04   -0.61180E-02   -0.32377E-03  6272   0.160E-01    0.388E+00
DAV:  40    -0.117465345195E+04   -0.79779E-02   -0.26143E-03  6368   0.188E-01    0.376E+00
DAV:  41    -0.117466595810E+04   -0.12506E-01   -0.15093E-02  6144   0.501E-01    0.352E+00
DAV:  42    -0.117466760263E+04   -0.16445E-02   -0.30094E-03  6368   0.130E-01    0.347E+00
DAV:  43    -0.117466696344E+04    0.63919E-03   -0.10680E-03  6240   0.143E-01    0.337E+00
DAV:  44    -0.117466620479E+04    0.75865E-03   -0.27090E-03  6400   0.237E-01    0.320E+00
DAV:  45    -0.117466299466E+04    0.32101E-02   -0.36912E-02  6496   0.719E-01    0.246E+00
DAV:  46    -0.117466720486E+04   -0.42102E-02   -0.76175E-03  5632   0.228E-01    0.234E+00
DAV:  47    -0.117466859324E+04   -0.13884E-02   -0.37037E-04  6016   0.380E-02    0.236E+00
DAV:  48    -0.117466451131E+04    0.40819E-02   -0.20961E-03  6816   0.157E-01    0.207E+00
DAV:  49    -0.117466624179E+04   -0.17305E-02   -0.16480E-03  6336   0.121E-01    0.192E+00
DAV:  50    -0.117466878739E+04   -0.25456E-02   -0.10943E-03  6400   0.101E-01    0.182E+00
DAV:  51    -0.117466870992E+04    0.77472E-04   -0.18713E-03  6208   0.174E-01    0.160E+00
DAV:  52    -0.117467010988E+04   -0.14000E-02   -0.31471E-03  6624   0.187E-01    0.135E+00
DAV:  53    -0.117466410963E+04    0.60002E-02   -0.68719E-03  6688   0.300E-01    0.935E-01
DAV:  54    -0.117466223780E+04    0.18718E-02   -0.19070E-03  6592   0.127E-01    0.837E-01
DAV:  55    -0.117466272581E+04   -0.48801E-03   -0.11098E-03  6560   0.110E-01    0.698E-01
DAV:  56    -0.117466568456E+04   -0.29587E-02   -0.18973E-03  6304   0.149E-01    0.530E-01
DAV:  57    -0.117467295284E+04   -0.72683E-02   -0.28791E-03  6368   0.195E-01    0.357E-01
DAV:  58    -0.117467930250E+04   -0.63497E-02   -0.44141E-03  6400   0.228E-01    0.155E-01
DAV:  59    -0.117468203907E+04   -0.27366E-02   -0.69144E-04  6560   0.633E-02    0.212E-01
DAV:  60    -0.117468268286E+04   -0.64379E-03   -0.13451E-04  6272   0.448E-02    0.139E-01
DAV:  61    -0.117468410931E+04   -0.14264E-02   -0.12359E-04  6240   0.257E-02    0.121E-01
DAV:  62    -0.117468474616E+04   -0.63685E-03   -0.43775E-05  6336   0.221E-02    0.920E-02
DAV:  63    -0.117468521738E+04   -0.47121E-03   -0.66060E-05  6464   0.274E-02    0.675E-02
DAV:  64    -0.117468526641E+04   -0.49031E-04   -0.50633E-05  6112   0.293E-02    0.517E-02
DAV:  65    -0.117468586233E+04   -0.59592E-03   -0.31993E-05  5760   0.122E-02    0.417E-02
DAV:  66    -0.117468619982E+04   -0.33749E-03   -0.25802E-05  5792   0.147E-02    0.282E-02
DAV:  67    -0.117468637826E+04   -0.17844E-03   -0.25523E-05  5408   0.141E-02    0.154E-02
DAV:  68    -0.117468643645E+04   -0.58197E-04   -0.62939E-06  5376   0.599E-03    0.131E-02
DAV:  69    -0.117468647955E+04   -0.43097E-04   -0.13504E-06  3776   0.504E-03    0.739E-03
DAV:  70    -0.117468650143E+04   -0.21876E-04   -0.16516E-06  3840   0.251E-03    0.562E-03
DAV:  71    -0.117468653078E+04   -0.29350E-04   -0.56523E-07  3648   0.182E-03    0.359E-03
DAV:  72    -0.117468655802E+04   -0.27242E-04   -0.49905E-07  3712   0.176E-03    0.228E-03
DAV:  73    -0.117468657878E+04   -0.20759E-04   -0.27233E-07  3648   0.996E-04    0.160E-03
DAV:  74    -0.117468659752E+04   -0.18740E-04   -0.26243E-07  3648   0.891E-04    0.870E-04
DAV:  75    -0.117468660617E+04   -0.86494E-05   -0.15955E-07  3648   0.773E-04    0.797E-04
DAV:  76    -0.117468661016E+04   -0.39950E-05   -0.84796E-08  3424   0.477E-04    0.761E-04
DAV:  77    -0.117468661633E+04   -0.61689E-05   -0.14206E-07  3552   0.535E-04    0.664E-04
DAV:  78    -0.117468662014E+04   -0.38102E-05   -0.16876E-07  3552   0.557E-04    0.782E-04
DAV:  79    -0.117468662090E+04   -0.75882E-06   -0.94402E-08  3584   0.477E-04
   1 F= -.11859349E+04 E0= -.11859183E+04  d E =-.118593E+04  mag=     0.0000
