 vasp.6.0.8 29Jun18 (build Mar 14 2019 11:44:20) complex                        
  
 executed on             LinuxIFC date 2020.12.24  14:25:22
 running  128 mpi-ranks, with    1 threads/rank
 distrk:  each k-point on  128 cores,    1 groups
 distr:  one band on NCORES_PER_BAND=   4 cores,   32 groups


--------------------------------------------------------------------------------------------------------


 INCAR:
 POTCAR:    PAW_PBE C 08Apr2002                   
 POTCAR:    PAW_PBE Fe 06Sep2000                  
 POTCAR:    PAW_PBE H 15Jun2001                   
 POTCAR:    PAW_PBE N 08Apr2002                   
 POTCAR:    PAW_PBE O 08Apr2002                   
 POTCAR:    PAW_PBE C 08Apr2002                   
   VRHFIN =C: s2p2                                                              
   LEXCH  = PE                                                                  
   EATOM  =   147.1560 eV,   10.8157 Ry                                         
                                                                                
   TITEL  = PAW_PBE C 08Apr2002                                                 
   LULTRA =        F    use ultrasoft PP ?                                      
   IUNSCR =        1    unscreen: 0-lin 1-nonlin 2-no                           
   RPACOR =    1.200    partial core radius                                     
   POMASS =   12.011; ZVAL   =    4.000    mass and valenz                      
   RCORE  =    1.500    outmost cutoff radius                                   
   RWIGS  =    1.630; RWIGS  =    0.863    wigner-seitz radius (au A)           
   ENMAX  =  400.000; ENMIN  =  300.000 eV                                      
   ICORE  =        2    local potential                                         
   LCOR   =        T    correct aug charges                                     
   LPAW   =        T    paw PP                                                  
   EAUG   =  644.873                                                            
   DEXC   =    0.000                                                            
   RMAX   =    1.529    core radius for proj-oper                               
   RAUG   =    1.300    factor for augmentation sphere                          
   RDEP   =    1.501    radius for radial grids                                 
   RDEPT  =    1.300    core radius for aug-charge                              
                                                                                
   Atomic configuration                                                         
    4 entries                                                                   
     n  l   j            E        occ.                                          
     1  0  0.50      -273.3789   2.0000                                         
     2  0  0.50       -13.7508   2.0000                                         
     2  1  0.50        -5.2854   2.0000                                         
     3  2  1.50        -5.4423   0.0000                                         
   Description                                                                  
     l       E           TYP  RCUT    TYP  RCUT                                 
     0    -13.7508458     23  1.200                                             
     0     -8.2022199     23  1.200                                             
     1     -5.2854383     23  1.500                                             
     1     34.0145650     23  1.500                                             
     2     -5.4423304      7  1.500                                             
  local pseudopotential read in
  partial core-charges read in
  partial kinetic energy density read in
  atomic valenz-charges read in
  non local Contribution for L=           0  read in
    real space projection operators read in
  non local Contribution for L=           0  read in
    real space projection operators read in
  non local Contribution for L=           1  read in
    real space projection operators read in
  non local Contribution for L=           1  read in
    real space projection operators read in
    PAW grid and wavefunctions read in
 
   number of l-projection  operators is LMAX  =           4
   number of lm-projection operators is LMMAX =           8
 
 POTCAR:    PAW_PBE Fe 06Sep2000                  
   VRHFIN =Fe:  d7 s1                                                           
   LEXCH  = PE                                                                  
   EATOM  =   594.3153 eV,   43.6809 Ry                                         
                                                                                
   TITEL  = PAW_PBE Fe 06Sep2000                                                
   LULTRA =        F    use ultrasoft PP ?                                      
   IUNSCR =        1    unscreen: 0-lin 1-nonlin 2-no                           
   RPACOR =    2.000    partial core radius                                     
   POMASS =   55.847; ZVAL   =    8.000    mass and valenz                      
   RCORE  =    2.300    outmost cutoff radius                                   
   RWIGS  =    2.460; RWIGS  =    1.302    wigner-seitz radius (au A)           
   ENMAX  =  267.882; ENMIN  =  200.911 eV                                      
   RCLOC  =    1.701    cutoff for local pot                                    
   LCOR   =        T    correct aug charges                                     
   LPAW   =        T    paw PP                                                  
   EAUG   =  511.368                                                            
   DEXC   =    0.000                                                            
   RMAX   =    2.356    core radius for proj-oper                               
   RAUG   =    1.300    factor for augmentation sphere                          
   RDEP   =    2.442    radius for radial grids                                 
   RDEPT  =    1.890    core radius for aug-charge                              
                                                                                
   Atomic configuration                                                         
    9 entries                                                                   
     n  l   j            E        occ.                                          
     1  0  0.50     -6993.8440   2.0000                                         
     2  0  0.50      -814.6047   2.0000                                         
     2  1  1.50      -693.3689   6.0000                                         
     3  0  0.50       -89.4732   2.0000                                         
     3  1  1.50       -55.6373   6.0000                                         
     3  2  2.50        -3.8151   7.0000                                         
     4  0  0.50        -4.2551   1.0000                                         
     4  1  1.50        -3.4015   0.0000                                         
     4  3  2.50        -1.3606   0.0000                                         
   Description                                                                  
     l       E           TYP  RCUT    TYP  RCUT                                 
     2     -3.8151135     23  2.300                                             
     2     -5.1756961     23  2.300                                             
     0     -4.2550963     23  2.300                                             
     0      7.2035603     23  2.300                                             
     1     -2.7211652     23  2.300                                             
     1     18.4316424     23  2.300                                             
  local pseudopotential read in
  partial core-charges read in
  partial kinetic energy density read in
  atomic valenz-charges read in
  non local Contribution for L=           2  read in
    real space projection operators read in
  non local Contribution for L=           2  read in
    real space projection operators read in
  non local Contribution for L=           0  read in
    real space projection operators read in
  non local Contribution for L=           0  read in
    real space projection operators read in
  non local Contribution for L=           1  read in
    real space projection operators read in
  non local Contribution for L=           1  read in
    real space projection operators read in
    PAW grid and wavefunctions read in
 
   number of l-projection  operators is LMAX  =           6
   number of lm-projection operators is LMMAX =          18
 
 POTCAR:    PAW_PBE H 15Jun2001                   
   VRHFIN =H: ultrasoft test                                                    
   LEXCH  = PE                                                                  
   EATOM  =    12.4884 eV,    0.9179 Ry                                         
                                                                                
   TITEL  = PAW_PBE H 15Jun2001                                                 
   LULTRA =        F    use ultrasoft PP ?                                      
   IUNSCR =        0    unscreen: 0-lin 1-nonlin 2-no                           
   RPACOR =    0.000    partial core radius                                     
   POMASS =    1.000; ZVAL   =    1.000    mass and valenz                      
   RCORE  =    1.100    outmost cutoff radius                                   
   RWIGS  =    0.700; RWIGS  =    0.370    wigner-seitz radius (au A)           
   ENMAX  =  250.000; ENMIN  =  200.000 eV                                      
   RCLOC  =    0.701    cutoff for local pot                                    
   LCOR   =        T    correct aug charges                                     
   LPAW   =        T    paw PP                                                  
   EAUG   =  400.000                                                            
   RMAX   =    1.123    core radius for proj-oper                               
   RAUG   =    1.200    factor for augmentation sphere                          
   RDEP   =    1.112    radius for radial grids                                 
   RDEPT  =    0.926    core radius for aug-charge                              
                                                                                
   Atomic configuration                                                         
    2 entries                                                                   
     n  l   j            E        occ.                                          
     1  0  0.50        -6.4927   1.0000                                         
     2  1  0.50        -3.4015   0.0000                                         
   Description                                                                  
     l       E           TYP  RCUT    TYP  RCUT                                 
     0     -6.4927494     23  1.100                                             
     0      6.8029130     23  1.100                                             
     1     -4.0817478     23  1.100                                             
  local pseudopotential read in
  atomic valenz-charges read in
  non local Contribution for L=           0  read in
    real space projection operators read in
  non local Contribution for L=           0  read in
    real space projection operators read in
  non local Contribution for L=           1  read in
    real space projection operators read in
    PAW grid and wavefunctions read in
 
   number of l-projection  operators is LMAX  =           3
   number of lm-projection operators is LMMAX =           5
 
 POTCAR:    PAW_PBE N 08Apr2002                   
   VRHFIN =N: s2p3                                                              
   LEXCH  = PE                                                                  
   EATOM  =   264.5486 eV,   19.4438 Ry                                         
                                                                                
   TITEL  = PAW_PBE N 08Apr2002                                                 
   LULTRA =        F    use ultrasoft PP ?                                      
   IUNSCR =        1    unscreen: 0-lin 1-nonlin 2-no                           
   RPACOR =    1.200    partial core radius                                     
   POMASS =   14.001; ZVAL   =    5.000    mass and valenz                      
   RCORE  =    1.500    outmost cutoff radius                                   
   RWIGS  =    1.400; RWIGS  =    0.741    wigner-seitz radius (au A)           
   ENMAX  =  400.000; ENMIN  =  300.000 eV                                      
   ICORE  =        2    local potential                                         
   LCOR   =        T    correct aug charges                                     
   LPAW   =        T    paw PP                                                  
   EAUG   =  627.112                                                            
   DEXC   =    0.000                                                            
   RMAX   =    1.529    core radius for proj-oper                               
   RAUG   =    1.300    factor for augmentation sphere                          
   RDEP   =    1.514    radius for radial grids                                 
   RDEPT  =    1.338    core radius for aug-charge                              
                                                                                
   Atomic configuration                                                         
    4 entries                                                                   
     n  l   j            E        occ.                                          
     1  0  0.50      -384.7179   2.0000                                         
     2  0  0.50       -18.5828   2.0000                                         
     2  1  0.50        -7.0898   3.0000                                         
     3  2  1.50        -6.8029   0.0000                                         
   Description                                                                  
     l       E           TYP  RCUT    TYP  RCUT                                 
     0    -18.5828119     23  1.200                                             
     0    -13.5018863     23  1.200                                             
     1     -7.0897853     23  1.500                                             
     1      9.5240782     23  1.500                                             
     2     -6.8029130      7  1.500                                             
  local pseudopotential read in
  partial core-charges read in
  partial kinetic energy density read in
  atomic valenz-charges read in
  non local Contribution for L=           0  read in
    real space projection operators read in
  non local Contribution for L=           0  read in
    real space projection operators read in
  non local Contribution for L=           1  read in
    real space projection operators read in
  non local Contribution for L=           1  read in
    real space projection operators read in
    PAW grid and wavefunctions read in
 
   number of l-projection  operators is LMAX  =           4
   number of lm-projection operators is LMMAX =           8
 
 POTCAR:    PAW_PBE O 08Apr2002                   
   VRHFIN =O: s2p4                                                              
   LEXCH  = PE                                                                  
   EATOM  =   432.3788 eV,   31.7789 Ry                                         
                                                                                
   TITEL  = PAW_PBE O 08Apr2002                                                 
   LULTRA =        F    use ultrasoft PP ?                                      
   IUNSCR =        1    unscreen: 0-lin 1-nonlin 2-no                           
   RPACOR =    1.200    partial core radius                                     
   POMASS =   16.000; ZVAL   =    6.000    mass and valenz                      
   RCORE  =    1.520    outmost cutoff radius                                   
   RWIGS  =    1.550; RWIGS  =    0.820    wigner-seitz radius (au A)           
   ENMAX  =  400.000; ENMIN  =  300.000 eV                                      
   ICORE  =        2    local potential                                         
   LCOR   =        T    correct aug charges                                     
   LPAW   =        T    paw PP                                                  
   EAUG   =  605.392                                                            
   DEXC   =    0.000                                                            
   RMAX   =    1.553    core radius for proj-oper                               
   RAUG   =    1.300    factor for augmentation sphere                          
   RDEP   =    1.550    radius for radial grids                                 
   RDEPT  =    1.329    core radius for aug-charge                              
                                                                                
   Atomic configuration                                                         
    4 entries                                                                   
     n  l   j            E        occ.                                          
     1  0  0.50      -514.6923   2.0000                                         
     2  0  0.50       -23.9615   2.0000                                         
     2  1  0.50        -9.0305   4.0000                                         
     3  2  1.50        -9.5241   0.0000                                         
   Description                                                                  
     l       E           TYP  RCUT    TYP  RCUT                                 
     0    -23.9615318     23  1.200                                             
     0     -9.5240782     23  1.200                                             
     1     -9.0304911     23  1.520                                             
     1      8.1634956     23  1.520                                             
     2     -9.5240782      7  1.500                                             
  local pseudopotential read in
  partial core-charges read in
  partial kinetic energy density read in
  kinetic energy density of atom read in
  atomic valenz-charges read in
  non local Contribution for L=           0  read in
    real space projection operators read in
  non local Contribution for L=           0  read in
    real space projection operators read in
  non local Contribution for L=           1  read in
    real space projection operators read in
  non local Contribution for L=           1  read in
    real space projection operators read in
    PAW grid and wavefunctions read in
 
   number of l-projection  operators is LMAX  =           4
   number of lm-projection operators is LMMAX =           8
 
 Optimization of the real space projectors (new method)

 maximal supplied QI-value         = 25.13
 optimisation between [QCUT,QGAM] = [ 12.32, 24.88] = [ 42.47,173.37] Ry 
 Optimized for a Real-space Cutoff    1.06 Angstroem

   l    n(q)    QCUT    max X(q) W(low)/X(q) W(high)/X(q)  e(spline) 
   0      8    12.315   115.676    0.34E-03    0.18E-03    0.23E-06
   0      8    12.315    87.132    0.34E-03    0.18E-03    0.22E-06
   1      7    12.315     4.429    0.45E-03    0.12E-03    0.18E-06
   1      7    12.315     2.733    0.35E-03    0.97E-04    0.15E-06
 Optimization of the real space projectors (new method)

 maximal supplied QI-value         = 16.25
 optimisation between [QCUT,QGAM] = [ 12.51, 25.03] = [ 43.85,175.40] Ry 
 Optimized for a Real-space Cutoff    1.35 Angstroem

   l    n(q)    QCUT    max X(q) W(low)/X(q) W(high)/X(q)  e(spline) 
   2      9    12.514    80.901    0.12E-03    0.34E-03    0.58E-06
   2      9    12.514    75.754    0.12E-03    0.34E-03    0.59E-06
   0     10    12.514    58.752    0.17E-03    0.81E-04    0.93E-07
   0     10    12.514    30.679    0.15E-03    0.74E-04    0.88E-07
   1     10    12.514    17.977    0.11E-03    0.79E-04    0.24E-06
   1     10    12.514    13.559    0.97E-04    0.61E-04    0.20E-06
 Optimization of the real space projectors (new method)

 maximal supplied QI-value         = 34.20
 optimisation between [QCUT,QGAM] = [ 12.31, 24.97] = [ 42.46,174.58] Ry 
 Optimized for a Real-space Cutoff    1.00 Angstroem

   l    n(q)    QCUT    max X(q) W(low)/X(q) W(high)/X(q)  e(spline) 
   0      7    12.313    19.460    0.14E-03    0.42E-03    0.16E-06
   0      7    12.313    12.209    0.12E-03    0.40E-03    0.16E-06
   1      7    12.313     4.655    0.33E-03    0.59E-03    0.89E-07
 Optimization of the real space projectors (new method)

 maximal supplied QI-value         = 25.13
 optimisation between [QCUT,QGAM] = [ 12.32, 24.88] = [ 42.47,173.37] Ry 
 Optimized for a Real-space Cutoff    1.20 Angstroem

   l    n(q)    QCUT    max X(q) W(low)/X(q) W(high)/X(q)  e(spline) 
   0      9    12.315    79.467    0.14E-03    0.22E-04    0.37E-06
   0      9    12.315    66.151    0.14E-03    0.23E-04    0.36E-06
   1      8    12.315    22.077    0.30E-03    0.54E-03    0.45E-06
   1      8    12.315    15.894    0.30E-03    0.55E-03    0.45E-06
 Optimization of the real space projectors (new method)

 maximal supplied QI-value         = 24.76
 optimisation between [QCUT,QGAM] = [ 12.38, 25.00] = [ 42.90,175.06] Ry 
 Optimized for a Real-space Cutoff    1.13 Angstroem

   l    n(q)    QCUT    max X(q) W(low)/X(q) W(high)/X(q)  e(spline) 
   0      8    12.378    20.381    0.16E-03    0.54E-05    0.27E-06
   0      8    12.378    15.268    0.17E-03    0.61E-05    0.29E-06
   1      8    12.378     5.964    0.38E-03    0.23E-03    0.28E-06
   1      8    12.378     5.382    0.33E-03    0.20E-03    0.25E-06
  PAW_PBE C 08Apr2002                   :
 energy of atom  1       EATOM= -147.1560
 kinetic energy error for atom=    0.0057 (will be added to EATOM!!)
  PAW_PBE Fe 06Sep2000                  :
 energy of atom  2       EATOM= -594.3153
 kinetic energy error for atom=    0.0017 (will be added to EATOM!!)
  PAW_PBE H 15Jun2001                   :
 energy of atom  3       EATOM=  -12.4884
 kinetic energy error for atom=    0.0004 (will be added to EATOM!!)
  PAW_PBE N 08Apr2002                   :
 energy of atom  4       EATOM= -264.5486
 kinetic energy error for atom=    0.0103 (will be added to EATOM!!)
  PAW_PBE O 08Apr2002                   :
 energy of atom  5       EATOM= -432.3788
 kinetic energy error for atom=    0.0168 (will be added to EATOM!!)
 
 
 POSCAR: FeH_exp1
  positions in direct lattice
  velocities in cartesian coordinates
 exchange correlation table for  LEXCH =        8
   RHO(1)=    0.500       N(1)  =     2000
   RHO(2)=  100.500       N(2)  =     4000
 


--------------------------------------------------------------------------------------------------------


 ion  position               nearest neighbor table
   1  0.891  0.968  0.092- 107 1.09 117 1.35  65 1.40
   2  0.933  0.985  0.406- 112 1.09 118 1.35  65 1.40
   3  0.890  0.814  0.916- 116 1.09 119 1.35  66 1.40
   4  0.608  0.468  0.589- 110 1.09 120 1.35  67 1.40
   5  0.569  0.296  0.107- 111 1.09 121 1.35  68 1.40
   6  0.066  0.796  0.105- 115 1.09 122 1.35  69 1.40
   7  0.567  0.485  0.904- 101 1.09 123 1.35  67 1.40
   8  0.610  0.314  0.422- 113 1.09 124 1.35  68 1.40
   9  0.432  0.484  0.405- 114 1.09 125 1.35  70 1.40
  10  0.108  0.812  0.419- 104 1.09 126 1.35  69 1.40
  11  0.068  0.985  0.906- 105 1.09 127 1.35  71 1.40
  12  0.433  0.296  0.605- 102 1.09 128 1.35  72 1.40
  13  0.932  0.797  0.603- 108 1.09 129 1.35  66 1.40
  14  0.109  0.967  0.593- 109 1.09 130 1.35  71 1.40
  15  0.392  0.313  0.921- 106 1.09 131 1.35  72 1.40
  16  0.390  0.467  0.090- 103 1.09 132 1.35  70 1.40
  17  0.814  0.033  0.450- 141 1.23 133 1.42  33 1.48
  18  0.847  0.084  0.048- 142 1.23 133 1.42  34 1.48
  19  0.845  0.698  0.961- 143 1.23 134 1.42  35 1.48
  20  0.654  0.584  0.542- 144 1.23 135 1.42  36 1.48
  21  0.656  0.198  0.469- 145 1.23 136 1.42  37 1.48
  22  0.186  0.747  0.061- 146 1.23 137 1.42  38 1.48
  23  0.687  0.533  0.945- 147 1.23 135 1.42  39 1.48
  24  0.689  0.249  0.066- 148 1.23 136 1.42  40 1.48
  25  0.311  0.531  0.446- 149 1.23 138 1.42  41 1.48
  26  0.153  0.696  0.463- 150 1.23 137 1.42  42 1.48
  27  0.155  0.083  0.548- 151 1.23 139 1.42  43 1.48
  28  0.347  0.197  0.966- 152 1.23 140 1.42  44 1.48
  29  0.812  0.749  0.558- 153 1.23 134 1.42  45 1.48
  30  0.188  0.032  0.950- 154 1.23 139 1.42  46 1.48
  31  0.313  0.248  0.564- 155 1.23 140 1.42  47 1.48
  32  0.344  0.582  0.044- 156 1.23 138 1.42  48 1.48
  33  0.773  0.075  0.449-  49 1.39  73 1.42  17 1.48
  34  0.807  0.127  0.059-  50 1.39  73 1.42  18 1.48
  35  0.805  0.656  0.950-  51 1.39  74 1.42  19 1.48
  36  0.694  0.626  0.552-  52 1.39  75 1.42  20 1.48
  37  0.696  0.156  0.458-  53 1.39  76 1.42  21 1.48
  38  0.227  0.705  0.062-  54 1.39  77 1.42  22 1.48
  39  0.728  0.575  0.943-  55 1.39  75 1.42  23 1.48
  40  0.730  0.207  0.068-  56 1.39  76 1.42  24 1.48
  41  0.270  0.573  0.444-  57 1.39  78 1.42  25 1.48
  42  0.193  0.654  0.453-  58 1.39  77 1.42  26 1.48
  43  0.195  0.125  0.558-  59 1.39  79 1.42  27 1.48
  44  0.306  0.155  0.957-  60 1.39  80 1.42  28 1.48
  45  0.771  0.707  0.560-  61 1.39  74 1.42  29 1.48
  46  0.229  0.074  0.949-  62 1.39  79 1.42  30 1.48
  47  0.272  0.206  0.566-  63 1.39  80 1.42  31 1.48
  48  0.304  0.625  0.054-  64 1.39  78 1.42  32 1.48
  49  0.736  0.070  0.639-  88 1.09  33 1.39  53 1.40
  50  0.804  0.172  0.873-  99 1.09  34 1.39  56 1.40
  51  0.803  0.610  0.137-  93 1.09  35 1.39  55 1.40
  52  0.696  0.672  0.365-  90 1.09  36 1.39  61 1.40
  53  0.698  0.110  0.644-  98 1.09  37 1.39  49 1.40
  54  0.263  0.710  0.872-  96 1.09  38 1.39  64 1.40
  55  0.764  0.570  0.133-  86 1.09  39 1.39  51 1.40
  56  0.766  0.212  0.878-  87 1.09  40 1.39  50 1.40
  57  0.234  0.568  0.635-  95 1.09  41 1.39  58 1.40
  58  0.195  0.608  0.639-  91 1.09  42 1.39  57 1.40
  59  0.197  0.171  0.372-  92 1.09  43 1.39  63 1.40
  60  0.304  0.109  0.143-  85 1.09  44 1.39  62 1.40
  61  0.735  0.712  0.369-  89 1.09  45 1.39  52 1.40
  62  0.265  0.069  0.139- 100 1.09  46 1.39  60 1.40
  63  0.236  0.211  0.375-  94 1.09  47 1.39  59 1.40
  64  0.302  0.670  0.867-  97 1.09  48 1.39  54 1.40
  65  0.889  0.000  0.248-   2 1.40   1 1.40 133 1.42
  66  0.888  0.782  0.760-  13 1.40   3 1.40 134 1.42
  67  0.611  0.501  0.745-   4 1.40   7 1.40 135 1.42
  68  0.613  0.282  0.266-   8 1.40   5 1.40 136 1.42
  69  0.111  0.780  0.262-   6 1.40  10 1.40 137 1.42
  70  0.387  0.499  0.247-  16 1.40   9 1.40 138 1.42
  71  0.112  0.999  0.749-  11 1.40  14 1.40 139 1.42
  72  0.389  0.280  0.764-  15 1.40  12 1.40 140 1.42
  73  0.771  0.121  0.257-  33 1.42  34 1.42  76 1.43
  74  0.769  0.661  0.753-  45 1.42  35 1.42  75 1.43
  75  0.730  0.621  0.749-  39 1.42  36 1.42  74 1.43
  76  0.732  0.162  0.261-  40 1.42  37 1.42  73 1.43
  77  0.229  0.660  0.255-  38 1.42  42 1.42  78 1.43
  78  0.268  0.619  0.251-  41 1.42  48 1.42  77 1.43
  79  0.231  0.120  0.756-  46 1.42  43 1.42  80 1.43
  80  0.270  0.160  0.759-  47 1.42  44 1.42  79 1.43
  81  0.983  0.891  0.005- 117 1.99 119 1.99 122 2.01 127 2.01  82 3.03  82 3.03
  82  0.017  0.890  0.505- 130 1.99 126 1.99 129 2.01 118 2.01  81 3.03  81 3.03
  83  0.516  0.391  0.505- 120 1.99 124 1.99 128 2.01 125 2.01  84 3.02  84 3.02
  84  0.484  0.390  0.006- 132 1.99 131 1.99 121 2.01 123 2.01  83 3.02  83 3.02
  85  0.332  0.106  0.293-  60 1.09
  86  0.762  0.535  0.279-  55 1.09
  87  0.764  0.248  0.732-  56 1.09
  88  0.739  0.034  0.784-  49 1.09
  89  0.737  0.748  0.224-  61 1.09
  90  0.668  0.675  0.216-  52 1.09
  91  0.167  0.605  0.788-  58 1.09
  92  0.169  0.174  0.222-  59 1.09
  93  0.831  0.607  0.286-  51 1.09
  94  0.238  0.246  0.230-  63 1.09
  95  0.236  0.533  0.781-  57 1.09
  96  0.261  0.746  0.726-  54 1.09
  97  0.330  0.673  0.718-  64 1.09
  98  0.670  0.107  0.793-  53 1.09
  99  0.833  0.175  0.723-  50 1.09
 100  0.263  0.034  0.285-  62 1.09
 101  0.555  0.500  0.054-   7 1.09
 102  0.446  0.281  0.456-  12 1.09
 103  0.364  0.466  0.938-  16 1.09
 104  0.135  0.813  0.571-  10 1.09
 105  0.055  1.000  0.055-  11 1.09
 106  0.366  0.313  0.073-  15 1.09
 107  0.865  0.967  0.940-   1 1.09
 108  0.945  0.781  0.455-  13 1.09
 109  0.136  0.966  0.442-  14 1.09
 110  0.634  0.468  0.437-   4 1.09
 111  0.556  0.281  0.958-   5 1.09
 112  0.946  0.000  0.555-   2 1.09
 113  0.636  0.315  0.573-   8 1.09
 114  0.444  0.499  0.554-   9 1.09
 115  0.053  0.781  0.955-   6 1.09
 116  0.864  0.815  0.067-   3 1.09
 117  0.935  0.935  0.154-   1 1.35 118 1.37  81 1.99
 118  0.961  0.946  0.346-   2 1.35 117 1.37  82 2.01
 119  0.935  0.847  0.855-   3 1.35 129 1.37  81 1.99
 120  0.565  0.435  0.653-   4 1.35 123 1.37  83 1.99
 121  0.540  0.336  0.165-   5 1.35 124 1.37  84 2.01
 122  0.039  0.835  0.164-   6 1.35 126 1.37  81 2.01
 123  0.539  0.446  0.846-   7 1.35 120 1.37  84 2.01
 124  0.566  0.347  0.358-   8 1.35 121 1.37  83 1.99
 125  0.460  0.445  0.346-   9 1.35 132 1.37  83 2.01
 126  0.065  0.845  0.357-  10 1.35 122 1.37  82 1.99
 127  0.040  0.945  0.847-  11 1.35 130 1.37  81 2.01
 128  0.461  0.335  0.665-  12 1.35 131 1.37  83 2.01
 129  0.960  0.836  0.663-  13 1.35 119 1.37  82 2.01
 130  0.065  0.935  0.655-  14 1.35 127 1.37  82 1.99
 131  0.436  0.345  0.858-  15 1.35 128 1.37  84 1.99
 132  0.435  0.434  0.154-  16 1.35 125 1.37  84 1.99
 133  0.849  0.040  0.249-  17 1.42  18 1.42  65 1.42
 134  0.847  0.742  0.759-  29 1.42  19 1.42  66 1.42
 135  0.651  0.541  0.745-  23 1.42  20 1.42  67 1.42
 136  0.654  0.242  0.267-  24 1.42  21 1.42  68 1.42
 137  0.151  0.740  0.262-  22 1.42  26 1.42  69 1.42
 138  0.347  0.539  0.246-  25 1.42  32 1.42  70 1.42
 139  0.153  0.039  0.750-  30 1.42  27 1.42  71 1.42
 140  0.349  0.240  0.764-  31 1.42  28 1.42  72 1.42
 141  0.817  0.992  0.613-  17 1.23
 142  0.877  0.086  0.876-  18 1.23
 143  0.876  0.696  0.132-  19 1.23
 144  0.623  0.586  0.371-  20 1.23
 145  0.625  0.196  0.640-  21 1.23
 146  0.182  0.788  0.898-  22 1.23
 147  0.683  0.493  0.109-  23 1.23
 148  0.685  0.290  0.902-  24 1.23
 149  0.315  0.491  0.611-  25 1.23
 150  0.122  0.694  0.634-  26 1.23
 151  0.124  0.085  0.376-  27 1.23
 152  0.377  0.195  0.138-  28 1.23
 153  0.816  0.790  0.395-  29 1.23
 154  0.184  0.992  0.115-  30 1.23
 155  0.317  0.288  0.399-  31 1.23
 156  0.375  0.585  0.873-  32 1.23
 

IMPORTANT INFORMATION: All symmetrisations will be switched off!
NOSYMM: (Re-)initialisation of all symmetry stuff for point group C_1.


----------------------------------------------------------------------------------------

                                     Primitive cell                                     

  volume of cell :    3542.7971

  direct lattice vectors                    reciprocal lattice vectors
    23.952636557  0.002588208 -0.012302822     0.041749073 -0.000003326  0.000029916
    -0.000672579 25.919824868  3.820232882    -0.000006548  0.039242704 -0.004492926
    -0.004106262  0.664541257  5.804329322     0.000092801 -0.025828360  0.175242364

  length of vectors
    23.952639857 26.199837803  5.842248782     0.041749084  0.039499067  0.177135538

  position of ions in fractional coordinates (direct lattice)
     0.891365978  0.967938043  0.091516064
     0.933401953  0.985107554  0.405623186
     0.890464861  0.814119082  0.916477346
     0.608298721  0.468234204  0.588793590
     0.568708918  0.296478310  0.106807267
     0.066337667  0.795502204  0.104626474
     0.567070146  0.485376665  0.904296479
     0.609765563  0.314185738  0.421839504
     0.431504980  0.484188972  0.405204287
     0.108347903  0.812375204  0.419425542
     0.067719542  0.984517621  0.906477093
     0.433149042  0.295680183  0.605300898
     0.932347413  0.796506642  0.603377978
     0.109437671  0.967074845  0.592673925
     0.391890631  0.312668359  0.921027135
     0.390431136  0.466552806  0.090070353
     0.813564962  0.032819777  0.449781058
     0.846826561  0.084293015  0.047867002
     0.845484978  0.697951827  0.960807320
     0.653509799  0.584349059  0.542392828
     0.655700681  0.198144590  0.468691859
     0.185996176  0.747443708  0.061156721
     0.686853384  0.533144022  0.944954485
     0.688845178  0.249480170  0.066354303
     0.311321562  0.531156323  0.446422205
     0.152681078  0.695985036  0.462881558
     0.154514543  0.083186010  0.547891214
     0.346569138  0.196736862  0.966346117
     0.812137762  0.749303209  0.558479989
     0.187817591  0.031923744  0.950438143
     0.313323081  0.247941140  0.563674082
     0.344442236  0.582465783  0.044068023
     0.772936653  0.075246614  0.449109167
     0.806845031  0.126584709  0.058937199
     0.805271326  0.655796938  0.950496925
     0.693871622  0.626455523  0.551978216
     0.695901368  0.155963896  0.458361631
     0.226672662  0.705039299  0.061998306
     0.727834964  0.575361098  0.942892400
     0.729785526  0.207250256  0.068008155
     0.270296671  0.573353056  0.444479213
     0.192858531  0.653802096  0.452539638
     0.194765392  0.125335967  0.558034282
     0.306210788  0.154651045  0.956603800
     0.771320778  0.706971523  0.559697896
     0.228696082  0.074212587  0.948899652
     0.272310800  0.205744426  0.565660731
     0.304058902  0.624529197  0.053819718
     0.736493608  0.070203199  0.639416133
     0.804444493  0.172150554  0.872936782
     0.802839774  0.610356999  0.137102341
     0.696344268  0.671897327  0.365361738
     0.698247833  0.110354505  0.644172028
     0.263088517  0.710041763  0.871581669
     0.764371263  0.570345582  0.133252559
     0.766172163  0.212275701  0.877531144
     0.233892280  0.568334755  0.634919334
     0.195413898  0.608336302  0.638975461
     0.197235362  0.170792111  0.371518911
     0.303670301  0.109243942  0.143353577
     0.734809623  0.711934099  0.369263718
     0.265188723  0.069230860  0.139392934
     0.235736803  0.210789431  0.375389560
     0.301519363  0.670004034  0.867451387
     0.888686961  0.000248158  0.248324538
     0.887508442  0.781773784  0.759850722
     0.611355795  0.500611258  0.745190327
     0.613191880  0.281750145  0.265791918
     0.110930208  0.780108314  0.262383863
     0.386948083  0.498871765  0.246584006
     0.112416854  0.999408607  0.749343979
     0.388780778  0.280444502  0.763947562
     0.770966003  0.120870776  0.256565802
     0.769240443  0.661499177  0.752979830
     0.729939409  0.620776948  0.749362852
     0.731867357  0.161704980  0.260957231
     0.228791641  0.659520855  0.255030992
     0.268066951  0.618799750  0.251120572
     0.230810153  0.119647137  0.755511240
     0.270147761  0.160337073  0.759175413
     0.983403740  0.890545693  0.004891012
     0.016759369  0.890330372  0.505240074
     0.516381024  0.390551437  0.505331732
     0.483922914  0.390291716  0.005733897
     0.331988595  0.105931196  0.292661438
     0.761958259  0.534768703  0.278839443
     0.763772862  0.247936083  0.732351971
     0.738699583  0.034446708  0.784202145
     0.737130130  0.747523966  0.223676451
     0.667985167  0.675215916  0.216188430
     0.167203409  0.605034061  0.788285144
     0.168890070  0.174111215  0.222333001
     0.831159306  0.607093959  0.286337308
     0.238116116  0.246381537  0.229836635
     0.236398256  0.532748776  0.780501323
     0.260741718  0.745688531  0.726243303
     0.329798904  0.673331568  0.718330642
     0.669958838  0.107005494  0.793302562
     0.832619203  0.175435127  0.723495170
     0.262817162  0.033646814  0.284976774
     0.554640900  0.500276819  0.053667942
     0.445616086  0.280895634  0.455640328
     0.364425876  0.465665177  0.938490702
     0.134629786  0.812776938  0.570854459
     0.055021506  0.999555592  0.055105935
     0.365864299  0.313205428  0.072749306
     0.865040185  0.967386065  0.940440862
     0.945085222  0.781428964  0.454901031
     0.135640077  0.966381767  0.441661408
     0.634276190  0.467644289  0.437026193
     0.556430777  0.281380613  0.957685934
     0.946241335  0.000012933  0.554569391
     0.635754508  0.315085124  0.573469984
     0.443760984  0.499248374  0.554454237
     0.053458715  0.780689614  0.955480835
     0.864175287  0.814922899  0.067095203
     0.935301627  0.935166348  0.153666601
     0.961189019  0.945731617  0.345773537
     0.934655438  0.846550288  0.854902711
     0.564564394  0.435343257  0.652871808
     0.540352690  0.335736108  0.165004045
     0.038732427  0.834986001  0.164408808
     0.539164063  0.445889022  0.845773150
     0.565641586  0.346646814  0.357608168
     0.459967612  0.445085998  0.346263886
     0.064609002  0.845382332  0.356901733
     0.039674880  0.945253289  0.846694160
     0.461151093  0.335000096  0.664795818
     0.960444304  0.835702934  0.663434105
     0.065370931  0.934509509  0.654786840
     0.435731710  0.345469252  0.857822833
     0.434672749  0.434217133  0.153597805
     0.848742062  0.040340202  0.249191688
     0.847379839  0.741825315  0.759192403
     0.651454528  0.540642182  0.744703080
     0.653553667  0.241914294  0.266632406
     0.150788570  0.739937269  0.261579711
     0.346541153  0.538655646  0.245981679
     0.152556692  0.039366695  0.749753384
     0.348667544  0.240447902  0.764041359
     0.817118788  0.992493024  0.613212594
     0.877159445  0.086234480  0.876113729
     0.876029509  0.695951178  0.132259828
     0.622976287  0.586273580  0.370979002
     0.625320008  0.196207435  0.640289244
     0.182492296  0.787769218  0.897698094
     0.683174071  0.493032802  0.109387122
     0.685086201  0.289651247  0.902226513
     0.315141759  0.491068804  0.610967169
     0.122197507  0.693990560  0.634204060
     0.123997604  0.085166173  0.376360705
     0.377068647  0.194815559  0.137858887
     0.815730541  0.789518046  0.394538514
     0.184172796  0.991776960  0.114703911
     0.317015961  0.288056304  0.399262338
     0.375021105  0.584534048  0.872961682

  ion indices of the primitive-cell ions
   primitive index   ion index
                 1           1
                 2           2
                 3           3
                 4           4
                 5           5
                 6           6
                 7           7
                 8           8
                 9           9
                10          10
                11          11
                12          12
                13          13
                14          14
                15          15
                16          16
                17          17
                18          18
                19          19
                20          20
                21          21
                22          22
                23          23
                24          24
                25          25
                26          26
                27          27
                28          28
                29          29
                30          30
                31          31
                32          32
                33          33
                34          34
                35          35
                36          36
                37          37
                38          38
                39          39
                40          40
                41          41
                42          42
                43          43
                44          44
                45          45
                46          46
                47          47
                48          48
                49          49
                50          50
                51          51
                52          52
                53          53
                54          54
                55          55
                56          56
                57          57
                58          58
                59          59
                60          60
                61          61
                62          62
                63          63
                64          64
                65          65
                66          66
                67          67
                68          68
                69          69
                70          70
                71          71
                72          72
                73          73
                74          74
                75          75
                76          76
                77          77
                78          78
                79          79
                80          80
                81          81
                82          82
                83          83
                84          84
                85          85
                86          86
                87          87
                88          88
                89          89
                90          90
                91          91
                92          92
                93          93
                94          94
                95          95
                96          96
                97          97
                98          98
                99          99
               100         100
               101         101
               102         102
               103         103
               104         104
               105         105
               106         106
               107         107
               108         108
               109         109
               110         110
               111         111
               112         112
               113         113
               114         114
               115         115
               116         116
               117         117
               118         118
               119         119
               120         120
               121         121
               122         122
               123         123
               124         124
               125         125
               126         126
               127         127
               128         128
               129         129
               130         130
               131         131
               132         132
               133         133
               134         134
               135         135
               136         136
               137         137
               138         138
               139         139
               140         140
               141         141
               142         142
               143         143
               144         144
               145         145
               146         146
               147         147
               148         148
               149         149
               150         150
               151         151
               152         152
               153         153
               154         154
               155         155
               156         156

----------------------------------------------------------------------------------------

 
 

Automatic generation of k-mesh.
 generate k-points for:    1    1    4
Space group operators:
 irot       det(A)        alpha          n_x          n_y          n_z        tau_x        tau_y        tau_z
    1     1.000000     0.000000     1.000000     0.000000     0.000000     0.000000     0.000000     0.000000
 
 Subroutine IBZKPT returns following result:
 ===========================================
 
 Found      3 irreducible k-points:
 
 Following reciprocal coordinates:
            Coordinates               Weight
  0.000000  0.000000  0.000000      1.000000
  0.000000 -0.000000  0.250000      2.000000
  0.000000 -0.000000  0.500000      1.000000
 
 Following cartesian coordinates:
            Coordinates               Weight
  0.000000  0.000000  0.000000      1.000000
  0.000023 -0.006457  0.043811      2.000000
  0.000046 -0.012914  0.087621      1.000000
 


--------------------------------------------------------------------------------------------------------




 Dimension of arrays:
   k-points           NKPTS =      3   k-points in BZ     NKDIM =      3   number of bands    NBANDS=    384
   number of dos      NEDOS =    301   number of ions     NIONS =    156
   non local maximal  LDIM  =      6   non local SUM 2l+1 LMDIM =     18
   total plane-waves  NPLWV = 829440
   max r-space proj   IRMAX =   2441   max aug-charges    IRDMAX=   8538
   dimension x,y,z NGX =   144 NGY =  160 NGZ =   36
   dimension x,y,z NGXF=   288 NGYF=  320 NGZF=   72
   support grid    NGXF=   288 NGYF=  320 NGZF=   72
   ions per type =              80   4  32  24  16
   NGX,Y,Z   is equivalent  to a cutoff of   9.99, 10.15, 10.24 a.u.
   NGXF,Y,Z  is equivalent  to a cutoff of  19.99, 20.30, 20.49 a.u.

 SYSTEM =  flex_MOF                                
 POSCAR =  FeH_exp1                                

 Startparameter for this run:
   NWRITE =      2    write-flag & timer
   PREC   = normal    normal or accurate (medium, high low for compatibility)
   ISTART =      0    job   : 0-new  1-cont  2-samecut
   ICHARG =      2    charge: 1-file 2-atom 10-const
   ISPIN  =      2    spin polarized calculation?
   LNONCOLLINEAR =      F non collinear calculations
   LSORBIT =      F    spin-orbit coupling
   INIWAV =      1    electr: 0-lowe 1-rand  2-diag
   LASPH  =      F    aspherical Exc in radial PAW
   METAGGA=      F    non-selfconsistent MetaGGA calc.

 Electronic Relaxation 1
   ENCUT  =  600.0 eV  44.10 Ry    6.64 a.u.  47.84 52.33 11.67*2*pi/ulx,y,z
   ENINI  =  600.0     initial cutoff
   ENAUG  =  644.9 eV  augmentation charge cutoff
   NELM   =    300;   NELMIN=  3; NELMDL= -8     # of ELM steps 
   EDIFF  = 0.1E-05   stopping-criterion for ELM
   LREAL  =      T    real-space projection
   NLSPLINE    = F    spline interpolate recip. space projectors
   LCOMPAT=      F    compatible to vasp.4.4
   GGA_COMPAT  = T    GGA compatible to vasp.4.4-vasp.4.6
   LMAXPAW     = -100 max onsite density
   LMAXMIX     =    2 max onsite mixed and CHGCAR
   VOSKOWN=      0    Vosko Wilk Nusair interpolation
   ROPT   =   -0.00050  -0.00050  -0.00050  -0.00050
   ROPT   =   -0.00050
 Ionic relaxation
   EDIFFG = -.1E-01   stopping-criterion for IOM
   NSW    =   1000    number of steps for IOM
   NBLOCK =      1;   KBLOCK =   1000    inner block; outer block 
   IBRION =      2    ionic relax: 0-MD 1-quasi-New 2-CG
   NFREE  =      1    steps in history (QN), initial steepest desc. (CG)
   ISIF   =      4    stress and relaxation
   IWAVPR =     11    prediction:  0-non 1-charg 2-wave 3-comb
   ISYM   =      0    0-nonsym 1-usesym 2-fastsym
   LCORR  =      T    Harris-Foulkes like correction to forces

   POTIM  = 0.5000    time-step for ionic-motion
   TEIN   =    0.0    initial temperature
   TEBEG  =    0.0;   TEEND  =   0.0 temperature during run
   SMASS  =  -3.00    Nose mass-parameter (am)
   estimated Nose-frequenzy (Omega)   =  0.10E-29 period in steps = 0.13E+47 mass=  -0.131E-25a.u.
   SCALEE = 1.0000    scale energy and forces
   NPACO  =    256;   APACO  = 16.0  distance and # of slots for P.C.
   PSTRESS=    0.0 pullay stress

  Mass of Ions in am
   POMASS =  12.01 55.85  1.00 14.00 16.00
  Ionic Valenz
   ZVAL   =   4.00  8.00  1.00  5.00  6.00
  Atomic Wigner-Seitz radii
   RWIGS  =  -1.00 -1.00 -1.00 -1.00 -1.00
  virtual crystal weights 
   VCA    =   1.00  1.00  1.00  1.00  1.00
   NELECT =     600.0000    total number of electrons
   NUPDOWN=       0.0000    fix difference up-down

 DOS related values:
   EMIN   =  10.00;   EMAX   =-10.00  energy-range for DOS
   EFERMI =   0.00
   ISMEAR =     0;   SIGMA  =   0.05  broadening in eV -4-tet -1-fermi 0-gaus

 Electronic relaxation 2 (details)
   IALGO  =     38    algorithm
   LDIAG  =      T    sub-space diagonalisation (order eigenvalues)
   LSUBROT=      F    optimize rotation matrix (better conditioning)
   TURBO    =      0    0=normal 1=particle mesh
   IRESTART =      0    0=no restart 2=restart with 2 vectors
   NREBOOT  =      0    no. of reboots
   NMIN     =      0    reboot dimension
   EREF     =   0.00    reference energy to select bands
   IMIX   =      4    mixing-type and parameters
     AMIX     =   0.40;   BMIX     =  1.00
     AMIX_MAG =   1.60;   BMIX_MAG =  1.00
     AMIN     =   0.10
     WC   =   100.;   INIMIX=   1;  MIXPRE=   1;  MAXMIX= -45

 Intra band minimization:
   WEIMIN = 0.0010     energy-eigenvalue tresh-hold
   EBREAK =  0.65E-09  absolut break condition
   DEPER  =   0.30     relativ break condition  

   TIME   =   0.40     timestep for ELM

  volume/ion in A,a.u.               =      22.71       153.26
  Fermi-wavevector in a.u.,A,eV,Ry     =   0.905753  1.711625 11.162065  0.820389
  Thomas-Fermi vector in A             =   2.029359
 
 Write flags
   LWAVE        =      T    write WAVECAR
   LDOWNSAMPLE  =      F    k-point downsampling of WAVECAR
   LCHARG       =      T    write CHGCAR
   LVTOT        =      F    write LOCPOT, total local potential
   LVHAR        =      F    write LOCPOT, Hartree potential only
   LELF         =      F    write electronic localiz. function (ELF)
   LORBIT       =     11    0 simple, 1 ext, 2 COOP (PROOUT), +10 PAW based schemes


 Dipole corrections
   LMONO  =      F    monopole corrections only (constant potential shift)
   LDIPOL =      F    correct potential (dipole corrections)
   IDIPOL =      0    1-x, 2-y, 3-z, 4-all directions 
   EPSILON=  1.0000000 bulk dielectric constant

 Exchange correlation treatment:
   GGA     =    PE    GGA type
   LEXCH   =     8    internal setting for exchange type
   VOSKOWN=      0    Vosko Wilk Nusair interpolation
   LHFCALC =     F    Hartree Fock is set to
   LHFONE  =     F    Hartree Fock one center treatment
   AEXX    =    0.0000 exact exchange contribution

 Linear response parameters
   LEPSILON=     F    determine dielectric tensor
   LRPA    =     F    only Hartree local field effects (RPA)
   LNABLA  =     F    use nabla operator in PAW spheres
   LVEL    =     F    velocity operator in full k-point grid
   LINTERFAST=   F  fast interpolation
   KINTER  =     0    interpolate to denser k-point grid
   CSHIFT  =0.1000    complex shift for real part using Kramers Kronig
   OMEGAMAX=  -1.0    maximum frequency
   DEG_THRESHOLD= 0.2000000E-02 threshold for treating states as degnerate
   RTIME   =   -0.100 relaxation time in fs
  (WPLASMAI=    0.000 imaginary part of plasma frequency in eV, 0.658/RTIME)
   DFIELD  = 0.0000000 0.0000000 0.0000000 field for delta impulse in time
 
 Orbital magnetization related:
   ORBITALMAG=     F  switch on orbital magnetization
   LCHIMAG   =     F  perturbation theory with respect to B field
   DQ        =  0.001000  dq finite difference perturbation B field
   LLRAUG    =     F  two centre corrections for induced B field



--------------------------------------------------------------------------------------------------------


 conjugate gradient relaxation of ions
 charge density and potential will be updated during run
 spin polarized calculation
 Variant of blocked Davidson
 Davidson routine will perform the subspace rotation
 perform sub-space diagonalisation
    after iterative eigenvector-optimisation
 modified Broyden-mixing scheme, WC =      100.0
 initial mixing is a Kerker type mixing with AMIX =  0.4000 and BMIX =      1.0000
 Hartree-type preconditioning will be used
 using additional bands           84
 real space projection scheme for non local part
 use partial core corrections
 calculate Harris-corrections to forces 
   (improved forces if not selfconsistent)
 use gradient corrections 
 use of overlap-Matrix (Vanderbilt PP)
 Gauss-broadening in eV      SIGMA  =   0.05


--------------------------------------------------------------------------------------------------------


  energy-cutoff  :      600.00
  volume of cell :     3542.80
      direct lattice vectors                 reciprocal lattice vectors
    23.952636557  0.002588208 -0.012302822     0.041749073 -0.000003326  0.000029916
    -0.000672579 25.919824868  3.820232882    -0.000006548  0.039242704 -0.004492926
    -0.004106262  0.664541257  5.804329322     0.000092801 -0.025828360  0.175242364

  length of vectors
    23.952639857 26.199837803  5.842248782     0.041749084  0.039499067  0.177135538


 
 k-points in units of 2pi/SCALE and weight: read from INCAR                         
   0.00000000  0.00000000  0.00000000       0.250
   0.00002320 -0.00645709  0.04381059       0.500
   0.00004640 -0.01291418  0.08762118       0.250
 
 k-points in reciprocal lattice and weights: read from INCAR                         
   0.00000000  0.00000000  0.00000000       0.250
   0.00000000 -0.00000000  0.25000000       0.500
   0.00000000 -0.00000000  0.50000000       0.250
 
 position of ions in fractional coordinates (direct lattice) 
   0.89136598  0.96793804  0.09151606
   0.93340195  0.98510755  0.40562319
   0.89046486  0.81411908  0.91647735
   0.60829872  0.46823420  0.58879359
   0.56870892  0.29647831  0.10680727
   0.06633767  0.79550220  0.10462647
   0.56707015  0.48537666  0.90429648
   0.60976556  0.31418574  0.42183950
   0.43150498  0.48418897  0.40520429
   0.10834790  0.81237520  0.41942554
   0.06771954  0.98451762  0.90647709
   0.43314904  0.29568018  0.60530090
   0.93234741  0.79650664  0.60337798
   0.10943767  0.96707484  0.59267393
   0.39189063  0.31266836  0.92102713
   0.39043114  0.46655281  0.09007035
   0.81356496  0.03281978  0.44978106
   0.84682656  0.08429301  0.04786700
   0.84548498  0.69795183  0.96080732
   0.65350980  0.58434906  0.54239283
   0.65570068  0.19814459  0.46869186
   0.18599618  0.74744371  0.06115672
   0.68685338  0.53314402  0.94495449
   0.68884518  0.24948017  0.06635430
   0.31132156  0.53115632  0.44642220
   0.15268108  0.69598504  0.46288156
   0.15451454  0.08318601  0.54789121
   0.34656914  0.19673686  0.96634612
   0.81213776  0.74930321  0.55847999
   0.18781759  0.03192374  0.95043814
   0.31332308  0.24794114  0.56367408
   0.34444224  0.58246578  0.04406802
   0.77293665  0.07524661  0.44910917
   0.80684503  0.12658471  0.05893720
   0.80527133  0.65579694  0.95049693
   0.69387162  0.62645552  0.55197822
   0.69590137  0.15596390  0.45836163
   0.22667266  0.70503930  0.06199831
   0.72783496  0.57536110  0.94289240
   0.72978553  0.20725026  0.06800815
   0.27029667  0.57335306  0.44447921
   0.19285853  0.65380210  0.45253964
   0.19476539  0.12533597  0.55803428
   0.30621079  0.15465104  0.95660380
   0.77132078  0.70697152  0.55969790
   0.22869608  0.07421259  0.94889965
   0.27231080  0.20574443  0.56566073
   0.30405890  0.62452920  0.05381972
   0.73649361  0.07020320  0.63941613
   0.80444449  0.17215055  0.87293678
   0.80283977  0.61035700  0.13710234
   0.69634427  0.67189733  0.36536174
   0.69824783  0.11035451  0.64417203
   0.26308852  0.71004176  0.87158167
   0.76437126  0.57034558  0.13325256
   0.76617216  0.21227570  0.87753114
   0.23389228  0.56833476  0.63491933
   0.19541390  0.60833630  0.63897546
   0.19723536  0.17079211  0.37151891
   0.30367030  0.10924394  0.14335358
   0.73480962  0.71193410  0.36926372
   0.26518872  0.06923086  0.13939293
   0.23573680  0.21078943  0.37538956
   0.30151936  0.67000403  0.86745139
   0.88868696  0.00024816  0.24832454
   0.88750844  0.78177378  0.75985072
   0.61135580  0.50061126  0.74519033
   0.61319188  0.28175014  0.26579192
   0.11093021  0.78010831  0.26238386
   0.38694808  0.49887176  0.24658401
   0.11241685  0.99940861  0.74934398
   0.38878078  0.28044450  0.76394756
   0.77096600  0.12087078  0.25656580
   0.76924044  0.66149918  0.75297983
   0.72993941  0.62077695  0.74936285
   0.73186736  0.16170498  0.26095723
   0.22879164  0.65952086  0.25503099
   0.26806695  0.61879975  0.25112057
   0.23081015  0.11964714  0.75551124
   0.27014776  0.16033707  0.75917541
   0.98340374  0.89054569  0.00489101
   0.01675937  0.89033037  0.50524007
   0.51638102  0.39055144  0.50533173
   0.48392291  0.39029172  0.00573390
   0.33198860  0.10593120  0.29266144
   0.76195826  0.53476870  0.27883944
   0.76377286  0.24793608  0.73235197
   0.73869958  0.03444671  0.78420214
   0.73713013  0.74752397  0.22367645
   0.66798517  0.67521592  0.21618843
   0.16720341  0.60503406  0.78828514
   0.16889007  0.17411122  0.22233300
   0.83115931  0.60709396  0.28633731
   0.23811612  0.24638154  0.22983664
   0.23639826  0.53274878  0.78050132
   0.26074172  0.74568853  0.72624330
   0.32979890  0.67333157  0.71833064
   0.66995884  0.10700549  0.79330256
   0.83261920  0.17543513  0.72349517
   0.26281716  0.03364681  0.28497677
   0.55464090  0.50027682  0.05366794
   0.44561609  0.28089563  0.45564033
   0.36442588  0.46566518  0.93849070
   0.13462979  0.81277694  0.57085446
   0.05502151  0.99955559  0.05510594
   0.36586430  0.31320543  0.07274931
   0.86504018  0.96738607  0.94044086
   0.94508522  0.78142896  0.45490103
   0.13564008  0.96638177  0.44166141
   0.63427619  0.46764429  0.43702619
   0.55643078  0.28138061  0.95768593
   0.94624133  0.00001293  0.55456939
   0.63575451  0.31508512  0.57346998
   0.44376098  0.49924837  0.55445424
   0.05345871  0.78068961  0.95548084
   0.86417529  0.81492290  0.06709520
   0.93530163  0.93516635  0.15366660
   0.96118902  0.94573162  0.34577354
   0.93465544  0.84655029  0.85490271
   0.56456439  0.43534326  0.65287181
   0.54035269  0.33573611  0.16500405
   0.03873243  0.83498600  0.16440881
   0.53916406  0.44588902  0.84577315
   0.56564159  0.34664681  0.35760817
   0.45996761  0.44508600  0.34626389
   0.06460900  0.84538233  0.35690173
   0.03967488  0.94525329  0.84669416
   0.46115109  0.33500010  0.66479582
   0.96044430  0.83570293  0.66343411
   0.06537093  0.93450951  0.65478684
   0.43573171  0.34546925  0.85782283
   0.43467275  0.43421713  0.15359780
   0.84874206  0.04034020  0.24919169
   0.84737984  0.74182531  0.75919240
   0.65145453  0.54064218  0.74470308
   0.65355367  0.24191429  0.26663241
   0.15078857  0.73993727  0.26157971
   0.34654115  0.53865565  0.24598168
   0.15255669  0.03936669  0.74975338
   0.34866754  0.24044790  0.76404136
   0.81711879  0.99249302  0.61321259
   0.87715945  0.08623448  0.87611373
   0.87602951  0.69595118  0.13225983
   0.62297629  0.58627358  0.37097900
   0.62532001  0.19620744  0.64028924
   0.18249230  0.78776922  0.89769809
   0.68317407  0.49303280  0.10938712
   0.68508620  0.28965125  0.90222651
   0.31514176  0.49106880  0.61096717
   0.12219751  0.69399056  0.63420406
   0.12399760  0.08516617  0.37636070
   0.37706865  0.19481556  0.13785889
   0.81573054  0.78951805  0.39453851
   0.18417280  0.99177696  0.11470391
   0.31701596  0.28805630  0.39926234
   0.37502111  0.58453405  0.87296168
 
 position of ions in cartesian coordinates  (Angst):
  21.34953850 25.15190780  4.21797180
  22.35510958 25.80578447  6.10622735
  21.32467034 21.71316573  8.41870559
  14.56762551 12.52940060  5.19883181
  13.62144004  7.75711564  1.74556402
   1.58799735 20.68897811  3.64547405
  13.57878538 13.18328816  7.09610990
  14.60354941  8.42554727  3.64125625
  10.33369244 12.82048515  4.19634503
   2.59294929 21.33562903  5.53661346
   1.61767718 26.12109102  9.02174502
  10.37237718  8.06734706  4.63760395
  22.32916539 21.04869533  6.53357485
   2.61823666 25.46055014  7.13317937
   9.38282158  8.71738393  6.53558939
   9.35117146 12.15383299  2.30033495
  19.48515685  1.15168661  2.72604743
  20.28347559  2.21886155  0.58943643
  20.24717963 18.73147352  8.23277877
  15.65066246 15.50835910  5.37253607
  15.70370225  5.44903525  3.46933341
   4.45434497 19.41473257  3.20809450
  16.44771067 14.44873864  7.51311112
  16.49921792  6.51236037  1.32973984
   7.45478185 14.06495062  4.61649221
   3.65474556 18.34780930  5.34366351
   3.69872496  2.52066303  3.49603000
   8.29714422  5.74245887  6.35630796
  19.45004342 19.79504293  6.09412295
   4.49480228  1.45954932  5.63630143
   7.50243254  6.80198655  4.21508814
   8.24972699 15.12758758  2.47670264
  18.51197596  2.25083115  2.88472780
  19.32573864  3.32230798  0.81574751
  19.28402734 17.63187042  8.01238709
  16.61736687 16.60622562  5.58853275
  16.66668550  4.34895823  3.24773871
   5.42867911 18.31628227  3.05048418
  17.42930762 15.54173357  7.66191696
  17.47986882  5.41897340  1.17750755
   6.47210716 15.15728516  4.76692052
   4.61717231 17.24766625  5.12199265
   4.66276891  3.62002721  3.71543116
   7.33052364  4.64502323  6.13947924
  18.47239251 18.69851674  5.93997734
   5.47392778  2.55475214  5.78842183
   6.52010050  5.70946917  4.06592260
   7.28237132 16.22423980  2.69449356
  17.63829090  2.24647923  3.97051343
  19.26486628  5.04429678  5.71457083
  19.22915584 15.91353459  3.11761582
  16.67732898 17.66006127  4.67891711
  16.72215721  3.29025555  4.15197608
   6.29760712 18.98404104  7.76823520
  18.30777629 14.87378778  2.94289076
  18.34809722  6.08728766  5.89499629
   5.59934737 15.15367278  5.85357450
   4.67764512 16.19310174  6.03040620
   4.72266652  4.67430173  2.80645720
   7.27304223  2.92763418  1.24567267
  17.59863272 18.70049997  4.85404205
   6.35135016  1.88777047  1.07029793
   5.64483474  5.71369712  2.98124912
   7.21817110 17.94362484  7.59083542
  21.28537594  0.17375422  1.43137206
  21.25452121 20.77068879  7.38606289
  14.64018652 13.47254817  6.23026025
  14.68628134  7.48113117  2.61155100
   2.65546885 20.39492288  4.50179302
   9.26707873 13.09553552  3.33230054
   2.68893086 26.40275702  8.16602981
   9.30899908  7.77775330  5.50078344
  18.46553364  3.30544333  1.94146186
  18.42179992 17.64831995  6.88815999
  17.48047877 16.59030153  6.71208097
  17.52897250  4.36667584  2.12342836
   5.47867222 17.26473584  3.99699234
   6.41946289 16.20675494  3.81824767
   5.52532890  3.60389861  4.83947635
   6.46752592  4.66111143  5.01570549
  23.55449334 23.08858394  3.41838234
   0.39875762 23.41300356  6.33364295
  12.36634928 10.46017514  4.41875629
  11.59094364 10.12135582  1.51833305
   7.95072917  2.94106289  2.09930080
  18.24940458 14.04838355  3.65204270
  18.29119979  6.91511474  5.18858903
  17.69055932  1.41589921  4.67427386
  17.65478886 19.52624036  4.14493864
  15.99866407 17.64687332  3.82609279
   4.00131865 16.20665766  6.88478051
   4.04433239  4.66111878  1.95356152
  19.90687268 15.92820327  3.97101073
   5.70239930  6.53951852  2.27235287
   5.65879825 14.32804215  6.56260274
   6.24196792 19.81140962  7.06085129
   7.89615076 17.93085024  6.73765355
  16.04395108  3.30247993  5.00513284
  19.94033630  5.03019514  4.85936370
   6.29397115  1.06217858  1.77940432
  13.28455506 13.00418762  2.21585672
  10.67162024  7.58471077  3.71229091
   8.72479366 12.69456883  7.22177505
   3.22184760 21.44674069  6.41676813
   1.31701157 25.94506846  4.13771122
   8.76290521  8.16752168  1.61427744
  20.71548082 25.70167805  9.14362609
  22.63488933 20.55924849  5.61400880
   3.24647392 25.34229945  6.25368291
  15.19047800 12.41332164  4.31535065
  13.32386241  7.93119819  6.62681835
  22.66269757  0.37131853  3.20731134
  15.22542993  8.54969117  4.52448562
  10.62663306 13.31003668  5.12002053
   1.27602864 20.87043288  8.52768387
  20.69845296 21.16948301  3.49200611
  22.40167997 24.34388651  4.45297794
  23.02095532 24.74546641  5.60807316
  22.38338219 22.51297241  8.18465722
  13.51983207 11.71934244  5.44564987
  12.94196823  8.81327166  2.23368007
   0.92650704 21.75204760  4.14364732
  12.91062798 12.12081199  6.60591256
  13.54690576  9.22413409  3.39298814
  11.01571582 11.76784825  3.70450289
   1.54552182 22.14950515  5.30033770
   0.94620548 25.06356560  8.52509133
  11.04282939  9.12612163  5.13279879
  23.00188703 22.10463886  7.03155368
   1.56248891 24.65762488  7.36983816
  10.43316848  9.52568894  6.29349849
  10.41063562 11.35802916  2.54499511
  20.32855976  1.21340586  1.59005767
  20.29336493 19.73469011  7.23012302
  15.60063197 14.50992270  6.37986623
  15.65307588  6.44925589  2.46375067
   3.61021204 19.35326520  4.34317234
   8.29920194 14.12622189  3.48128525
   3.65102984  1.51901474  4.50032862
   8.34820788  6.74100695  5.34902505
  19.56896382 26.13486530  7.34078946
  21.00662584  2.81966661  5.40389686
  20.98220527 18.12909210  3.41559754
  14.92000693 15.44425176  4.38532154
  14.97530172  5.51277943  4.45831453
   4.36695562 21.01586992  8.21775207
  16.36303945 12.85378432  2.51001403
  16.40572120  8.10904948  6.33492653
   7.54563694 13.13524593  5.41837471
   2.92388149 18.40988480  6.33083140
   2.96846683  2.45792043  2.50835057
   9.03109115  5.14217403  1.53978018
  19.53674608 20.72846788  5.29613848
   4.41028600 25.78338726  4.45233238
   7.59153488  7.73251576  3.41399207
   8.97876648 15.73210983  7.29539946
 


--------------------------------------------------------------------------------------------------------


 k-point  1 :   0.0000 0.0000 0.0000  plane waves:  118303
 k-point  2 :   0.0000-0.0000 0.2500  plane waves:  118192
 k-point  3 :   0.0000-0.0000 0.5000  plane waves:  118208

 maximum and minimum number of plane-waves per node :     29708    29473

 maximum number of plane-waves:    118303
 maximum index in each direction: 
   IXMAX=   47   IYMAX=   52   IZMAX=   11
   IXMIN=  -47   IYMIN=  -52   IZMIN=  -12


 real space projection operators:
  total allocation   :      12009.66 KBytes
  max/ min on nodes  :       3025.30       2971.26


 parallel 3D FFT for wavefunctions:
    minimum data exchange during FFTs selected (reduces bandwidth)
 parallel 3D FFT for charge:
    minimum data exchange during FFTs selected (reduces bandwidth)


 total amount of memory used by VASP MPI-rank0   105077. kBytes
=======================================================================

   base      :      30000. kBytes
   nonlr-proj:       6606. kBytes
   fftplans  :       8698. kBytes
   grid      :      24130. kBytes
   one-center:       1213. kBytes
   wavefun   :      34430. kBytes
 
     INWAV:  cpu time    0.0001: real time    0.0007
 Broyden mixing: mesh for mixing (old mesh)
   NGX = 95   NGY =105   NGZ = 23
  (NGX  =288   NGY  =320   NGZ  = 72)
  gives a total of 229425 points

 initial charge density was supplied:
 charge density of overlapping atoms calculated
 number of electron     600.0000000 magnetization       0.0000000
 keeping initial charge density in first step


--------------------------------------------------------------------------------------------------------


 Maximum index for non-local projection operator          598
 Maximum index for augmentation-charges          424 (set IRDMAX)


--------------------------------------------------------------------------------------------------------


 First call to EWALD:  gamma=   0.116
 Maximum number of real-space cells 2x 2x 7
 Maximum number of reciprocal cells 4x 4x 1

    FEWALD:  cpu time    0.0170: real time    0.0173


--------------------------------------- Iteration      1(   1)  ---------------------------------------


    POTLOK:  cpu time    0.3928: real time    0.4218
    SETDIJ:  cpu time    0.0703: real time    0.0703
     EDDAV:  cpu time   15.0865: real time   15.1840
       DOS:  cpu time    0.0139: real time    0.0148
    --------------------------------------------
      LOOP:  cpu time   15.5635: real time   15.6910

 eigenvalue-minimisations  :  4608
 total energy-change (2. order) : 0.5449180E+04  (-0.2729899E+05)
 number of electron     600.0000000 magnetization       0.0000000
 augmentation part      600.0000000 magnetization       0.0000000

 Free energy of the ion-electron system (eV)
  ---------------------------------------------------
  alpha Z        PSCENC =       500.31424809
  Ewald energy   TEWEN  =     41987.49424909
  -Hartree energ DENC   =    -65307.94368593
  -exchange      EXHF   =         0.00000000
  -V(xc)+E(xc)   XCENC  =      2073.89154592
  PAW double counting   =     21414.44618548   -21549.26220163
  entropy T*S    EENTRO =        -0.04079027
  eigenvalues    EBANDS =     -1485.32369529
  atomic energy  EATOM  =     27815.60422923
  Solvation  Ediel_sol  =         0.00000000
  ---------------------------------------------------
  free energy    TOTEN  =      5449.18008468 eV

  energy without entropy =     5449.22087495  energy(sigma->0) =     5449.20047981


--------------------------------------------------------------------------------------------------------




--------------------------------------- Iteration      1(   2)  ---------------------------------------


     EDDAV:  cpu time   19.8570: real time   19.9069
       DOS:  cpu time    0.0053: real time    0.0053
    --------------------------------------------
      LOOP:  cpu time   19.8623: real time   19.9122

 eigenvalue-minimisations  :  6144
 total energy-change (2. order) :-0.5769906E+04  (-0.5569004E+04)
 number of electron     600.0000000 magnetization       0.0000000
 augmentation part      600.0000000 magnetization       0.0000000

 Free energy of the ion-electron system (eV)
  ---------------------------------------------------
  alpha Z        PSCENC =       500.31424809
  Ewald energy   TEWEN  =     41987.49424909
  -Hartree energ DENC   =    -65307.94368593
  -exchange      EXHF   =         0.00000000
  -V(xc)+E(xc)   XCENC  =      2073.89154592
  PAW double counting   =     21414.44618548   -21549.26220163
  entropy T*S    EENTRO =        -0.01466678
  eigenvalues    EBANDS =     -7255.25597289
  atomic energy  EATOM  =     27815.60422923
  Solvation  Ediel_sol  =         0.00000000
  ---------------------------------------------------
  free energy    TOTEN  =      -320.72606942 eV

  energy without entropy =     -320.71140265  energy(sigma->0) =     -320.71873604


--------------------------------------------------------------------------------------------------------




--------------------------------------- Iteration      1(   3)  ---------------------------------------


     EDDAV:  cpu time   18.2153: real time   18.2807
       DOS:  cpu time    0.0138: real time    0.0138
    --------------------------------------------
      LOOP:  cpu time   18.2291: real time   18.2945

 eigenvalue-minimisations  :  5568
 total energy-change (2. order) :-0.9350177E+03  (-0.9262016E+03)
 number of electron     600.0000000 magnetization       0.0000000
 augmentation part      600.0000000 magnetization       0.0000000

 Free energy of the ion-electron system (eV)
  ---------------------------------------------------
  alpha Z        PSCENC =       500.31424809
  Ewald energy   TEWEN  =     41987.49424909
  -Hartree energ DENC   =    -65307.94368593
  -exchange      EXHF   =         0.00000000
  -V(xc)+E(xc)   XCENC  =      2073.89154592
  PAW double counting   =     21414.44618548   -21549.26220163
  entropy T*S    EENTRO =        -0.03011427
  eigenvalues    EBANDS =     -8190.25819903
  atomic energy  EATOM  =     27815.60422923
  Solvation  Ediel_sol  =         0.00000000
  ---------------------------------------------------
  free energy    TOTEN  =     -1255.74374306 eV

  energy without entropy =    -1255.71362879  energy(sigma->0) =    -1255.72868592


--------------------------------------------------------------------------------------------------------




--------------------------------------- Iteration      1(   4)  ---------------------------------------


     EDDAV:  cpu time   21.9681: real time   22.0246
       DOS:  cpu time    0.0091: real time    0.0091
    --------------------------------------------
      LOOP:  cpu time   21.9772: real time   22.0337

 eigenvalue-minimisations  :  7008
 total energy-change (2. order) :-0.3947556E+02  (-0.3915105E+02)
 number of electron     600.0000000 magnetization       0.0000000
 augmentation part      600.0000000 magnetization       0.0000000

 Free energy of the ion-electron system (eV)
  ---------------------------------------------------
  alpha Z        PSCENC =       500.31424809
  Ewald energy   TEWEN  =     41987.49424909
  -Hartree energ DENC   =    -65307.94368593
  -exchange      EXHF   =         0.00000000
  -V(xc)+E(xc)   XCENC  =      2073.89154592
  PAW double counting   =     21414.44618548   -21549.26220163
  entropy T*S    EENTRO =        -0.09355300
  eigenvalues    EBANDS =     -8229.67031556
  atomic energy  EATOM  =     27815.60422923
  Solvation  Ediel_sol  =         0.00000000
  ---------------------------------------------------
  free energy    TOTEN  =     -1295.21929832 eV

  energy without entropy =    -1295.12574532  energy(sigma->0) =    -1295.17252182


--------------------------------------------------------------------------------------------------------




--------------------------------------- Iteration      1(   5)  ---------------------------------------


     EDDAV:  cpu time   18.6904: real time   18.7123
       DOS:  cpu time    0.0064: real time    0.0064
    --------------------------------------------
      LOOP:  cpu time   18.6968: real time   18.7187

 eigenvalue-minimisations  :  6048
 total energy-change (2. order) :-0.6181826E+00  (-0.6147974E+00)
 number of electron     600.0000000 magnetization       0.0000000
 augmentation part      600.0000000 magnetization       0.0000000

 Free energy of the ion-electron system (eV)
  ---------------------------------------------------
  alpha Z        PSCENC =       500.31424809
  Ewald energy   TEWEN  =     41987.49424909
  -Hartree energ DENC   =    -65307.94368593
  -exchange      EXHF   =         0.00000000
  -V(xc)+E(xc)   XCENC  =      2073.89154592
  PAW double counting   =     21414.44618548   -21549.26220163
  entropy T*S    EENTRO =        -0.09665768
  eigenvalues    EBANDS =     -8230.28539346
  atomic energy  EATOM  =     27815.60422923
  Solvation  Ediel_sol  =         0.00000000
  ---------------------------------------------------
  free energy    TOTEN  =     -1295.83748090 eV

  energy without entropy =    -1295.74082322  energy(sigma->0) =    -1295.78915206


--------------------------------------------------------------------------------------------------------




--------------------------------------- Iteration      1(   6)  ---------------------------------------


     EDDAV:  cpu time   21.7391: real time   21.8050
       DOS:  cpu time    0.0069: real time    0.0069
    --------------------------------------------
      LOOP:  cpu time   21.7459: real time   21.8118

 eigenvalue-minimisations  :  7104
 total energy-change (2. order) :-0.3362412E-01  (-0.3358487E-01)
 number of electron     600.0000000 magnetization       0.0000000
 augmentation part      600.0000000 magnetization       0.0000000

 Free energy of the ion-electron system (eV)
  ---------------------------------------------------
  alpha Z        PSCENC =       500.31424809
  Ewald energy   TEWEN  =     41987.49424909
  -Hartree energ DENC   =    -65307.94368593
  -exchange      EXHF   =         0.00000000
  -V(xc)+E(xc)   XCENC  =      2073.89154592
  PAW double counting   =     21414.44618548   -21549.26220163
  entropy T*S    EENTRO =        -0.09689048
  eigenvalues    EBANDS =     -8230.31878478
  atomic energy  EATOM  =     27815.60422923
  Solvation  Ediel_sol  =         0.00000000
  ---------------------------------------------------
  free energy    TOTEN  =     -1295.87110502 eV

  energy without entropy =    -1295.77421453  energy(sigma->0) =    -1295.82265978


--------------------------------------------------------------------------------------------------------




--------------------------------------- Iteration      1(   7)  ---------------------------------------


     EDDAV:  cpu time   18.8650: real time   18.8866
       DOS:  cpu time    0.0053: real time    0.0053
    --------------------------------------------
      LOOP:  cpu time   18.8704: real time   18.8919

 eigenvalue-minimisations  :  6112
 total energy-change (2. order) :-0.5857133E-03  (-0.5851561E-03)
 number of electron     600.0000000 magnetization       0.0000000
 augmentation part      600.0000000 magnetization       0.0000000

 Free energy of the ion-electron system (eV)
  ---------------------------------------------------
  alpha Z        PSCENC =       500.31424809
  Ewald energy   TEWEN  =     41987.49424909
  -Hartree energ DENC   =    -65307.94368593
  -exchange      EXHF   =         0.00000000
  -V(xc)+E(xc)   XCENC  =      2073.89154592
  PAW double counting   =     21414.44618548   -21549.26220163
  entropy T*S    EENTRO =        -0.09690248
  eigenvalues    EBANDS =     -8230.31935849
  atomic energy  EATOM  =     27815.60422923
  Solvation  Ediel_sol  =         0.00000000
  ---------------------------------------------------
  free energy    TOTEN  =     -1295.87169073 eV

  energy without entropy =    -1295.77478825  energy(sigma->0) =    -1295.82323949


--------------------------------------------------------------------------------------------------------




--------------------------------------- Iteration      1(   8)  ---------------------------------------


     EDDAV:  cpu time   22.2641: real time   22.3202
       DOS:  cpu time    0.0055: real time    0.0055
    CHARGE:  cpu time    0.8211: real time    0.8315
    MIXING:  cpu time    0.0142: real time    0.0165
    --------------------------------------------
      LOOP:  cpu time   23.1051: real time   23.1738

 eigenvalue-minimisations  :  7104
 total energy-change (2. order) :-0.2488617E-04  (-0.2488132E-04)
 number of electron     600.0000023 magnetization       0.0000001
 augmentation part       35.8159584 magnetization      -0.0228767

 Broyden mixing:
  rms(total) = 0.81850E+01    rms(broyden)= 0.81845E+01
  rms(prec ) = 0.88016E+01
  weight for this iteration     100.00

 Free energy of the ion-electron system (eV)
  ---------------------------------------------------
  alpha Z        PSCENC =       500.31424809
  Ewald energy   TEWEN  =     41987.49424909
  -Hartree energ DENC   =    -65307.94368593
  -exchange      EXHF   =         0.00000000
  -V(xc)+E(xc)   XCENC  =      2073.89154592
  PAW double counting   =     21414.44618548   -21549.26220163
  entropy T*S    EENTRO =        -0.09690276
  eigenvalues    EBANDS =     -8230.31938310
  atomic energy  EATOM  =     27815.60422923
  Solvation  Ediel_sol  =         0.00000000
  ---------------------------------------------------
  free energy    TOTEN  =     -1295.87171562 eV

  energy without entropy =    -1295.77481286  energy(sigma->0) =    -1295.82326424


--------------------------------------------------------------------------------------------------------




--------------------------------------- Iteration      1(   9)  ---------------------------------------


    POTLOK:  cpu time    0.4183: real time    0.4292
    SETDIJ:  cpu time    0.0607: real time    0.0606
     EDDAV:  cpu time   22.5818: real time   22.6192
       DOS:  cpu time    0.0090: real time    0.0090
    CHARGE:  cpu time    0.7982: real time    0.8076
    MIXING:  cpu time    0.0125: real time    0.0232
    --------------------------------------------
      LOOP:  cpu time   23.8805: real time   23.9488

 eigenvalue-minimisations  :  7136
 total energy-change (2. order) :-0.1306317E+03  (-0.1660162E+03)
 number of electron     599.9999989 magnetization       0.0000001
 augmentation part       54.3662595 magnetization      -0.0026426

 Broyden mixing:
  rms(total) = 0.23210E+02    rms(broyden)= 0.23210E+02
  rms(prec ) = 0.23655E+02
  weight for this iteration     100.00

 eigenvalues of (default mixing * dielectric matrix)
  average eigenvalue GAMMA=   0.0854
  0.0854

 Free energy of the ion-electron system (eV)
[...]
     15.19048     12.41332      4.31535         0.000864      0.001772      0.002164
     13.32386      7.93120      6.62682        -0.001224     -0.001694      0.004427
     22.66270      0.37132      3.20731         0.001420      0.000721     -0.000878
     15.22543      8.54969      4.52449        -0.001826     -0.001457     -0.001832
     10.62663     13.31004      5.12002         0.003558      0.000805     -0.003221
      1.27603     20.87043      8.52768        -0.002023      0.000995     -0.000425
     20.69845     21.16948      3.49201         0.000901     -0.001966     -0.004894
     22.40168     24.34389      4.45298        -0.000305      0.003395      0.005343
     23.02096     24.74547      5.60807         0.003789      0.002636      0.000460
     22.38338     22.51297      8.18466        -0.001068     -0.002980     -0.005535
     13.51983     11.71934      5.44565        -0.001433      0.000897      0.000659
     12.94197      8.81327      2.23368        -0.000126     -0.003638     -0.000815
      0.92651     21.75205      4.14365         0.002066     -0.003369      0.000391
     12.91063     12.12081      6.60591        -0.000786      0.004184     -0.000801
     13.54691      9.22413      3.39299         0.001578     -0.006425     -0.000735
     11.01572     11.76785      3.70450         0.001034      0.003885      0.000715
      1.54552     22.14951      5.30034         0.000102     -0.002390     -0.002926
      0.94621     25.06357      8.52509        -0.001210      0.001830      0.001879
     11.04283      9.12612      5.13280        -0.003649     -0.004906      0.002944
     23.00189     22.10464      7.03155         0.000544     -0.001958      0.000489
      1.56249     24.65762      7.36984        -0.000070      0.003105      0.005055
     10.43317      9.52569      6.29350        -0.000422     -0.003597      0.001182
     10.41064     11.35803      2.54500        -0.000160      0.000948     -0.000197
     20.32856      1.21341      1.59006         0.003581     -0.000203     -0.004870
     20.29336     19.73469      7.23012         0.002521      0.000400      0.003653
     15.60063     14.50992      6.37987         0.000565     -0.003099     -0.000336
     15.65308      6.44926      2.46375        -0.001175      0.003055      0.000570
      3.61021     19.35327      4.34317        -0.004564      0.000769     -0.000645
      8.29920     14.12622      3.48129         0.000058      0.000414      0.001137
      3.65103      1.51901      4.50033        -0.004248      0.001988     -0.002269
      8.34821      6.74101      5.34903         0.001681      0.003972      0.003477
     19.56896     26.13487      7.34079         0.000391      0.001422      0.003300
     21.00663      2.81967      5.40390        -0.001570      0.000805      0.001466
     20.98221     18.12909      3.41560         0.001295     -0.001130      0.000709
     14.92001     15.44425      4.38532         0.001229     -0.000497     -0.000151
     14.97530      5.51278      4.45831         0.000871     -0.001006     -0.002641
      4.36696     21.01587      8.21775        -0.002251      0.000227     -0.004091
     16.36304     12.85378      2.51001        -0.003155     -0.000205      0.002433
     16.40572      8.10905      6.33493        -0.001394     -0.000488     -0.003260
      7.54564     13.13525      5.41837         0.002354      0.001802     -0.000547
      2.92388     18.40988      6.33083         0.002069     -0.000307     -0.002118
      2.96847      2.45792      2.50835        -0.001729     -0.002272      0.001288
      9.03109      5.14217      1.53978        -0.003906     -0.000445     -0.000113
     19.53675     20.72847      5.29614         0.002580     -0.002701     -0.001418
      4.41029     25.78339      4.45233        -0.001304     -0.000230      0.002617
      7.59153      7.73252      3.41399         0.001740      0.000198     -0.000729
      8.97877     15.73211      7.29540        -0.000468      0.000220      0.000365
 -----------------------------------------------------------------------------------
    total drift:                                0.010060     -0.048863     -0.006187


--------------------------------------------------------------------------------------------------------



  FREE ENERGIE OF THE ION-ELECTRON SYSTEM (eV)
  ---------------------------------------------------
  free  energy   TOTEN  =     -1185.93485497 eV

  energy  without entropy=    -1185.90168511  energy(sigma->0) =    -1185.91827004
 


--------------------------------------------------------------------------------------------------------


    POTLOK:  cpu time    0.4411: real time    0.4431


--------------------------------------------------------------------------------------------------------




--------------------------------------------------------------------------------------------------------


  
 reached required accuracy - stopping structural energy minimisation
 writing wavefunctions
     LOOP+:  cpu time 1714.1409: real time 1719.8980
    4ORBIT:  cpu time    0.0000: real time    0.0000
 


 total charge     
 
# of ion       s       p       d       tot
------------------------------------------
    1        0.870   1.769   0.000   2.640
    2        0.868   1.770   0.000   2.638
    3        0.870   1.769   0.000   2.640
    4        0.870   1.770   0.000   2.640
    5        0.868   1.770   0.000   2.638
    6        0.868   1.770   0.000   2.638
    7        0.868   1.770   0.000   2.638
    8        0.870   1.769   0.000   2.639
    9        0.868   1.770   0.000   2.638
   10        0.870   1.769   0.000   2.640
   11        0.868   1.770   0.000   2.638
   12        0.868   1.770   0.000   2.638
   13        0.868   1.770   0.000   2.638
   14        0.870   1.769   0.000   2.640
   15        0.870   1.769   0.000   2.640
   16        0.870   1.769   0.000   2.640
   17        0.863   1.717   0.000   2.580
   18        0.864   1.717   0.000   2.580
   19        0.864   1.717   0.000   2.581
   20        0.863   1.717   0.000   2.580
   21        0.864   1.717   0.000   2.580
   22        0.863   1.717   0.000   2.580
   23        0.863   1.717   0.000   2.580
   24        0.863   1.717   0.000   2.580
   25        0.863   1.717   0.000   2.580
   26        0.864   1.717   0.000   2.581
   27        0.863   1.717   0.000   2.580
   28        0.864   1.717   0.000   2.580
   29        0.863   1.717   0.000   2.580
   30        0.863   1.717   0.000   2.580
   31        0.863   1.717   0.000   2.580
   32        0.863   1.717   0.000   2.580
   33        0.865   1.786   0.000   2.652
   34        0.865   1.785   0.000   2.651
   35        0.865   1.785   0.000   2.651
   36        0.865   1.785   0.000   2.650
   37        0.865   1.785   0.000   2.650
   38        0.865   1.786   0.000   2.651
   39        0.865   1.786   0.000   2.652
   40        0.865   1.786   0.000   2.652
   41        0.865   1.786   0.000   2.651
   42        0.865   1.785   0.000   2.650
   43        0.865   1.785   0.000   2.650
   44        0.865   1.785   0.000   2.650
   45        0.865   1.786   0.000   2.651
   46        0.865   1.786   0.000   2.651
   47        0.865   1.786   0.000   2.652
   48        0.865   1.785   0.000   2.651
   49        0.870   1.768   0.000   2.637
   50        0.870   1.768   0.000   2.637
   51        0.870   1.768   0.000   2.638
   52        0.870   1.767   0.000   2.637
   53        0.870   1.767   0.000   2.637
   54        0.870   1.767   0.000   2.637
   55        0.870   1.768   0.000   2.638
   56        0.870   1.768   0.000   2.638
   57        0.870   1.768   0.000   2.637
   58        0.870   1.768   0.000   2.638
   59        0.870   1.767   0.000   2.637
   60        0.870   1.767   0.000   2.637
   61        0.870   1.767   0.000   2.637
   62        0.870   1.768   0.000   2.637
   63        0.870   1.768   0.000   2.637
   64        0.870   1.768   0.000   2.638
   65        0.847   1.790   0.000   2.637
   66        0.848   1.790   0.000   2.637
   67        0.847   1.790   0.000   2.637
   68        0.847   1.790   0.000   2.637
   69        0.847   1.790   0.000   2.637
   70        0.848   1.790   0.000   2.637
   71        0.847   1.790   0.000   2.637
   72        0.848   1.790   0.000   2.637
   73        0.865   1.790   0.000   2.656
   74        0.865   1.790   0.000   2.656
   75        0.865   1.790   0.000   2.656
   76        0.865   1.790   0.000   2.656
   77        0.865   1.790   0.000   2.656
   78        0.865   1.790   0.000   2.656
   79        0.865   1.790   0.000   2.656
   80        0.865   1.790   0.000   2.656
   81        0.395   0.508   6.047   6.949
   82        0.394   0.508   6.047   6.949
   83        0.395   0.509   6.048   6.952
   84        0.394   0.508   6.046   6.949
   85        0.638   0.048   0.000   0.686
   86        0.638   0.048   0.000   0.686
   87        0.638   0.048   0.000   0.686
   88        0.638   0.048   0.000   0.686
   89        0.638   0.048   0.000   0.686
   90        0.638   0.048   0.000   0.686
   91        0.638   0.048   0.000   0.686
   92        0.638   0.048   0.000   0.686
   93        0.638   0.048   0.000   0.686
   94        0.638   0.048   0.000   0.686
   95        0.638   0.048   0.000   0.686
   96        0.638   0.048   0.000   0.686
   97        0.638   0.048   0.000   0.686
   98        0.638   0.048   0.000   0.686
   99        0.638   0.048   0.000   0.686
  100        0.638   0.048   0.000   0.686
  101        0.635   0.049   0.000   0.684
  102        0.635   0.049   0.000   0.684
  103        0.626   0.051   0.000   0.678
  104        0.626   0.051   0.000   0.677
  105        0.635   0.049   0.000   0.684
  106        0.626   0.051   0.000   0.678
  107        0.626   0.051   0.000   0.678
  108        0.635   0.049   0.000   0.684
  109        0.626   0.051   0.000   0.678
  110        0.626   0.051   0.000   0.678
  111        0.635   0.049   0.000   0.684
  112        0.635   0.049   0.000   0.684
  113        0.626   0.051   0.000   0.678
  114        0.635   0.049   0.000   0.684
  115        0.635   0.049   0.000   0.684
  116        0.626   0.051   0.000   0.678
  117        1.239   2.613   0.000   3.852
  118        1.239   2.611   0.000   3.850
  119        1.239   2.613   0.000   3.852
  120        1.239   2.614   0.000   3.853
  121        1.239   2.611   0.000   3.850
  122        1.239   2.611   0.000   3.851
  123        1.239   2.611   0.000   3.850
  124        1.239   2.613   0.000   3.852
  125        1.239   2.612   0.000   3.851
  126        1.239   2.613   0.000   3.852
  127        1.239   2.611   0.000   3.850
  128        1.239   2.612   0.000   3.851
  129        1.239   2.612   0.000   3.851
  130        1.239   2.613   0.000   3.852
  131        1.239   2.613   0.000   3.852
  132        1.239   2.613   0.000   3.852
  133        1.211   2.728   0.000   3.939
  134        1.211   2.728   0.000   3.939
  135        1.211   2.728   0.000   3.939
  136        1.211   2.728   0.000   3.939
  137        1.211   2.728   0.000   3.939
  138        1.211   2.728   0.000   3.939
  139        1.211   2.728   0.000   3.939
  140        1.211   2.728   0.000   3.939
  141        1.584   3.544   0.000   5.127
  142        1.585   3.537   0.000   5.121
  143        1.585   3.537   0.000   5.122
  144        1.585   3.537   0.000   5.122
  145        1.585   3.537   0.000   5.121
  146        1.584   3.544   0.000   5.128
  147        1.584   3.544   0.000   5.127
  148        1.584   3.544   0.000   5.127
  149        1.584   3.544   0.000   5.127
  150        1.585   3.537   0.000   5.122
  151        1.585   3.537   0.000   5.121
  152        1.585   3.537   0.000   5.122
  153        1.584   3.544   0.000   5.127
  154        1.584   3.544   0.000   5.127
  155        1.584   3.544   0.000   5.127
  156        1.585   3.537   0.000   5.122
--------------------------------------------------
tot        145.930 265.141  24.187 435.258
 


 magnetization (x)
 
# of ion       s       p       d       tot
------------------------------------------
    1        0.003   0.020   0.000   0.022
    2        0.003   0.021   0.000   0.024
    3        0.003   0.020   0.000   0.022
    4       -0.003  -0.020   0.000  -0.022
    5       -0.003  -0.021   0.000  -0.024
    6        0.003   0.021   0.000   0.024
    7       -0.003  -0.021   0.000  -0.024
    8       -0.003  -0.019   0.000  -0.022
    9       -0.003  -0.021   0.000  -0.024
   10        0.003   0.020   0.000   0.022
   11        0.003   0.021   0.000   0.024
   12       -0.003  -0.021   0.000  -0.024
   13        0.003   0.021   0.000   0.024
   14        0.003   0.020   0.000   0.022
   15       -0.003  -0.020   0.000  -0.022
   16       -0.003  -0.019   0.000  -0.022
   17        0.000   0.001   0.000   0.001
   18        0.000   0.001   0.000   0.001
   19        0.000   0.001   0.000   0.001
   20       -0.000  -0.001   0.000  -0.001
   21       -0.000  -0.001   0.000  -0.001
   22        0.000   0.001   0.000   0.001
   23       -0.000  -0.001   0.000  -0.001
   24       -0.000  -0.001   0.000  -0.001
   25       -0.000  -0.001   0.000  -0.001
   26        0.000   0.001   0.000   0.001
   27        0.000   0.001   0.000   0.001
   28       -0.000  -0.001   0.000  -0.001
   29        0.000   0.001   0.000   0.001
   30        0.000   0.001   0.000   0.001
   31       -0.000  -0.001   0.000  -0.001
   32       -0.000  -0.001   0.000  -0.001
   33       -0.000  -0.000   0.000  -0.000
   34       -0.000  -0.000   0.000  -0.000
   35       -0.000  -0.000   0.000  -0.000
   36        0.000   0.000   0.000   0.000
   37       -0.000   0.000   0.000   0.000
   38       -0.000  -0.000   0.000  -0.000
   39        0.000   0.000   0.000   0.000
   40        0.000   0.000   0.000   0.000
   41        0.000   0.000   0.000   0.000
   42       -0.000  -0.000   0.000  -0.000
   43       -0.000  -0.000   0.000  -0.000
   44        0.000   0.000   0.000   0.000
   45       -0.000  -0.000   0.000  -0.000
   46       -0.000  -0.000   0.000  -0.000
   47        0.000   0.000   0.000   0.000
   48        0.000   0.000   0.000   0.000
   49        0.000   0.000   0.000   0.000
   50        0.000   0.000   0.000   0.000
   51        0.000   0.000   0.000   0.000
   52       -0.000  -0.000   0.000  -0.000
   53       -0.000  -0.000   0.000  -0.000
   54        0.000   0.000   0.000   0.000
   55       -0.000  -0.000   0.000  -0.000
   56       -0.000  -0.000   0.000  -0.000
   57       -0.000  -0.000   0.000  -0.000
   58        0.000   0.000   0.000   0.000
   59        0.000   0.000   0.000   0.000
   60       -0.000  -0.000   0.000  -0.000
   61        0.000   0.000   0.000   0.000
   62        0.000   0.000   0.000   0.000
   63       -0.000  -0.000   0.000  -0.000
   64       -0.000  -0.000   0.000  -0.000
   65        0.002   0.015   0.000   0.017
   66        0.002   0.015   0.000   0.017
   67       -0.002  -0.016   0.000  -0.017
   68       -0.002  -0.016   0.000  -0.017
   69        0.002   0.015   0.000   0.017
   70       -0.002  -0.016   0.000  -0.017
   71        0.002   0.015   0.000   0.017
   72       -0.002  -0.016   0.000  -0.017
   73        0.000   0.000   0.000   0.000
   74        0.000   0.000   0.000   0.000
   75       -0.000  -0.000   0.000  -0.000
   76       -0.000  -0.000   0.000  -0.000
   77        0.000   0.000   0.000   0.000
   78       -0.000  -0.000   0.000  -0.000
   79        0.000   0.000   0.000   0.000
   80       -0.000  -0.000   0.000  -0.000
   81        0.017   0.072   3.413   3.503
   82        0.017   0.072   3.413   3.502
   83       -0.017  -0.072  -3.412  -3.501
   84       -0.017  -0.072  -3.413  -3.502
   85        0.000  -0.000   0.000   0.000
   86        0.000  -0.000   0.000   0.000
   87        0.000  -0.000   0.000   0.000
   88       -0.000   0.000   0.000  -0.000
   89       -0.000   0.000   0.000  -0.000
   90        0.000  -0.000   0.000   0.000
   91       -0.000   0.000   0.000  -0.000
   92       -0.000   0.000   0.000  -0.000
   93       -0.000   0.000   0.000  -0.000
   94        0.000  -0.000   0.000   0.000
   95        0.000  -0.000   0.000   0.000
   96       -0.000   0.000   0.000  -0.000
   97        0.000  -0.000   0.000   0.000
   98        0.000  -0.000   0.000   0.000
   99       -0.000   0.000   0.000  -0.000
  100       -0.000   0.000   0.000  -0.000
  101       -0.000  -0.000   0.000  -0.000
  102       -0.000  -0.000   0.000  -0.000
  103       -0.000  -0.000   0.000  -0.000
  104        0.000   0.000   0.000   0.000
  105        0.000   0.000   0.000   0.000
  106       -0.000  -0.000   0.000  -0.000
  107        0.000   0.000   0.000   0.000
  108        0.000   0.000   0.000   0.000
  109        0.000   0.000   0.000   0.000
  110       -0.000  -0.000   0.000  -0.000
  111       -0.000  -0.000   0.000  -0.000
  112        0.000   0.000   0.000   0.000
  113       -0.000  -0.000   0.000  -0.000
  114       -0.000  -0.000   0.000  -0.000
  115        0.000   0.000   0.000   0.000
  116        0.000   0.000   0.000   0.000
  117        0.012   0.042   0.000   0.054
  118        0.014   0.046   0.000   0.060
  119        0.012   0.042   0.000   0.054
  120       -0.012  -0.042   0.000  -0.054
  121       -0.014  -0.046   0.000  -0.060
  122        0.014   0.046   0.000   0.060
  123       -0.014  -0.046   0.000  -0.059
  124       -0.012  -0.042   0.000  -0.054
  125       -0.014  -0.046   0.000  -0.060
  126        0.012   0.042   0.000   0.053
  127        0.014   0.046   0.000   0.060
  128       -0.014  -0.046   0.000  -0.059
  129        0.014   0.046   0.000   0.060
  130        0.012   0.041   0.000   0.053
  131       -0.012  -0.042   0.000  -0.054
  132       -0.012  -0.042   0.000  -0.054
  133        0.000   0.000   0.000   0.000
  134        0.000   0.000   0.000   0.000
  135       -0.000  -0.000   0.000  -0.000
  136       -0.000  -0.000   0.000  -0.000
  137        0.000   0.000   0.000   0.000
  138       -0.000  -0.000   0.000  -0.000
  139        0.000   0.000   0.000   0.000
  140       -0.000  -0.000   0.000  -0.000
  141        0.000   0.001   0.000   0.001
  142        0.000   0.001   0.000   0.001
  143        0.000   0.001   0.000   0.001
  144       -0.000  -0.001   0.000  -0.001
  145       -0.000  -0.001   0.000  -0.001
  146        0.000   0.001   0.000   0.001
  147       -0.000  -0.001   0.000  -0.001
  148       -0.000  -0.001   0.000  -0.001
  149       -0.000  -0.001   0.000  -0.001
  150        0.000   0.001   0.000   0.001
  151        0.000   0.001   0.000   0.001
  152       -0.000  -0.001   0.000  -0.001
  153        0.000   0.001   0.000   0.001
  154        0.000   0.001   0.000   0.001
  155       -0.000  -0.001   0.000  -0.001
  156       -0.000  -0.001   0.000  -0.001
--------------------------------------------------
tot         -0.000  -0.001   0.001  -0.000
 

 total amount of memory used by VASP MPI-rank0   105077. kBytes
=======================================================================

   base      :      30000. kBytes
   nonlr-proj:       6606. kBytes
   fftplans  :       8698. kBytes
   grid      :      24130. kBytes
   one-center:       1213. kBytes
   wavefun   :      34430. kBytes
 
  
  
 General timing and accounting informations for this job:
 ========================================================
  
                  Total CPU time used (sec):     1913.334
                            User time (sec):     1789.780
                          System time (sec):      123.554
                         Elapsed time (sec):     1927.214
  
                   Maximum memory used (kb):      783472.
                   Average memory used (kb):           0.
  
                          Minor page faults:       269153
                          Major page faults:            8
                 Voluntary context switches:        43526
