       N       E                     dE             d eps       ncg     rms          rms(c)
DAV:   1     0.455035493240E+04    0.45504E+04   -0.31450E+05 10752   0.161E+03
DAV:   2    -0.727878716195E+03   -0.52782E+04   -0.50761E+04 12736   0.358E+02
DAV:   3    -0.127140896161E+04   -0.54353E+03   -0.53180E+03 13024   0.125E+02
DAV:   4    -0.129508231241E+04   -0.23673E+02   -0.23442E+02 15232   0.317E+01
DAV:   5    -0.129569550585E+04   -0.61319E+00   -0.61159E+00 13984   0.427E+00
DAV:   6    -0.129573039002E+04   -0.34884E-01   -0.34868E-01 16448   0.119E+00
DAV:   7    -0.129573101946E+04   -0.62944E-03   -0.62922E-03 14112   0.122E-01
DAV:   8    -0.129573103746E+04   -0.17998E-04   -0.17997E-04 16544   0.235E-02    0.973E+01
DAV:   9    -0.170784135472E+04   -0.41211E+03   -0.47338E+03 18656   0.953E+01    0.391E+02
DAV:  10    -0.162685250244E+04    0.80989E+02   -0.42332E+02 13568   0.338E+01    0.262E+02
DAV:  11    -0.119809337935E+04    0.42876E+03   -0.71070E+02 15936   0.895E+01    0.916E+01
DAV:  12    -0.117839773660E+04    0.19696E+02   -0.60454E+02 16256   0.847E+01    0.546E+01
DAV:  13    -0.118265277059E+04   -0.42550E+01   -0.69945E+02 14944   0.294E+01    0.556E+01
DAV:  14    -0.119289018246E+04   -0.10237E+02   -0.38569E+02 16320   0.406E+01    0.665E+01
DAV:  15    -0.116338398721E+04    0.29506E+02   -0.18046E+02 15328   0.293E+01    0.381E+01
DAV:  16    -0.116471747560E+04   -0.13335E+01   -0.94259E+01 15808   0.201E+01    0.439E+01
DAV:  17    -0.116091184584E+04    0.38056E+01   -0.78048E+01 15968   0.171E+01    0.276E+01
DAV:  18    -0.116178103443E+04   -0.86919E+00   -0.85039E+00 14208   0.634E+00    0.226E+01
DAV:  19    -0.116231222910E+04   -0.53119E+00   -0.55119E+00 15456   0.364E+00    0.218E+01
DAV:  20    -0.116311797404E+04   -0.80574E+00   -0.71483E-01 13728   0.205E+00    0.220E+01
DAV:  21    -0.116336963892E+04   -0.25166E+00   -0.89516E-02 14784   0.821E-01    0.217E+01
DAV:  22    -0.116487261336E+04   -0.15030E+01   -0.60670E+00 14528   0.441E+00    0.191E+01
DAV:  23    -0.116652921209E+04   -0.16566E+01   -0.34769E+00 14656   0.283E+00    0.208E+01
DAV:  24    -0.116850715737E+04   -0.19779E+01   -0.36223E+00 14368   0.351E+00    0.211E+01
DAV:  25    -0.117024427816E+04   -0.17371E+01   -0.13547E+00 14528   0.201E+00    0.217E+01
DAV:  26    -0.117145138279E+04   -0.12071E+01   -0.16078E+00 14432   0.236E+00    0.190E+01
DAV:  27    -0.117234239828E+04   -0.89102E+00   -0.46445E+00 13504   0.255E+00    0.177E+01
DAV:  28    -0.117221272669E+04    0.12967E+00   -0.43185E+00 14720   0.320E+00    0.152E+01
DAV:  29    -0.117149308119E+04    0.71965E+00   -0.30285E+00 12576   0.371E+00    0.128E+01
DAV:  30    -0.116999970761E+04    0.14934E+01   -0.17515E+00 15008   0.359E+00    0.117E+01
DAV:  31    -0.116958574326E+04    0.41396E+00   -0.70765E-01 14720   0.275E+00    0.996E+00
DAV:  32    -0.116918885193E+04    0.39689E+00   -0.72853E-01 15424   0.212E+00    0.893E+00
DAV:  33    -0.116927370595E+04   -0.84854E-01   -0.29381E-01 14912   0.130E+00    0.844E+00
DAV:  34    -0.116946627962E+04   -0.19257E+00   -0.47281E-01 14240   0.174E+00    0.669E+00
DAV:  35    -0.116947550356E+04   -0.92239E-02   -0.37258E-02 13280   0.482E-01    0.665E+00
DAV:  36    -0.116988902200E+04   -0.41352E+00   -0.73903E-01 14048   0.144E+00    0.750E+00
DAV:  37    -0.117000197402E+04   -0.11295E+00   -0.75524E-02 14752   0.909E-01    0.677E+00
DAV:  38    -0.117051273940E+04   -0.51077E+00   -0.25730E-01 14272   0.194E+00    0.482E+00
DAV:  39    -0.117071219325E+04   -0.19945E+00   -0.74463E-02 15040   0.735E-01    0.429E+00
DAV:  40    -0.117083077072E+04   -0.11858E+00   -0.69067E-02 14720   0.775E-01    0.389E+00
DAV:  41    -0.117090626654E+04   -0.75496E-01   -0.47739E-02 15520   0.789E-01    0.339E+00
DAV:  42    -0.117094105290E+04   -0.34786E-01   -0.55114E-02 15168   0.755E-01    0.297E+00
DAV:  43    -0.117103020214E+04   -0.89149E-01   -0.58523E-02 15104   0.864E-01    0.320E+00
DAV:  44    -0.117104563540E+04   -0.15433E-01   -0.35602E-02 14528   0.720E-01    0.269E+00
DAV:  45    -0.117111791259E+04   -0.72277E-01   -0.11664E-01 14848   0.109E+00    0.209E+00
DAV:  46    -0.117113721605E+04   -0.19303E-01   -0.37187E-02 14304   0.506E-01    0.184E+00
DAV:  47    -0.117114857304E+04   -0.11357E-01   -0.69431E-03 13984   0.282E-01    0.162E+00
DAV:  48    -0.117118382940E+04   -0.35256E-01   -0.19889E-02 14272   0.449E-01    0.136E+00
DAV:  49    -0.117120910717E+04   -0.25278E-01   -0.15882E-02 13920   0.415E-01    0.105E+00
DAV:  50    -0.117121494527E+04   -0.58381E-02   -0.10383E-02 15072   0.386E-01    0.816E-01
DAV:  51    -0.117121624014E+04   -0.12949E-02   -0.34677E-03 14432   0.143E-01    0.640E-01
DAV:  52    -0.117121627203E+04   -0.31891E-04   -0.33386E-04 13312   0.481E-02    0.643E-01
DAV:  53    -0.117121631456E+04   -0.42534E-04   -0.13650E-05 15712   0.807E-03    0.643E-01
DAV:  54    -0.117122786916E+04   -0.11555E-01   -0.90540E-03 14048   0.343E-01    0.121E+00
DAV:  55    -0.117122735434E+04    0.51482E-03   -0.47047E-03 15072   0.227E-01    0.610E-01
DAV:  56    -0.117123068934E+04   -0.33350E-02   -0.29542E-03 14080   0.165E-01    0.610E-01
DAV:  57    -0.117123053295E+04    0.15638E-03   -0.68574E-04 14560   0.810E-02    0.482E-01
DAV:  58    -0.117123078921E+04   -0.25626E-03   -0.79786E-04 14400   0.776E-02    0.379E-01
DAV:  59    -0.117123078179E+04    0.74206E-05   -0.14874E-03 15008   0.131E-01    0.317E-01
DAV:  60    -0.117123113454E+04   -0.35274E-03   -0.85154E-04 13568   0.733E-02    0.281E-01
DAV:  61    -0.117123132860E+04   -0.19407E-03   -0.52214E-04 14720   0.666E-02    0.208E-01
DAV:  62    -0.117123140946E+04   -0.80857E-04   -0.26243E-04 14240   0.626E-02    0.122E-01
DAV:  63    -0.117123151883E+04   -0.10937E-03   -0.16227E-04 14688   0.515E-02    0.123E-01
DAV:  64    -0.117123158356E+04   -0.64726E-04   -0.10532E-04 13888   0.382E-02    0.643E-02
DAV:  65    -0.117123163130E+04   -0.47744E-04   -0.26255E-04 13664   0.303E-02    0.737E-02
DAV:  66    -0.117123165243E+04   -0.21130E-04   -0.60575E-05 14336   0.307E-02    0.540E-02
DAV:  67    -0.117123165355E+04   -0.11153E-05   -0.27382E-05 13504   0.130E-02    0.523E-02
DAV:  68    -0.117123165412E+04   -0.57470E-06   -0.17744E-05 13856   0.136E-02    0.481E-02
DAV:  69    -0.117123165357E+04    0.55642E-06   -0.14182E-05 13952   0.123E-02    0.311E-02
DAV:  70    -0.117123165214E+04    0.14237E-05   -0.90188E-06 10816   0.944E-03    0.319E-02
DAV:  71    -0.117123165310E+04   -0.95815E-06   -0.91036E-06 11872   0.123E-02
   1 F= -.11867896E+04 E0= -.11867708E+04  d E =-.118679E+04  mag=    -0.0402
