 vasp.6.0.8 29Jun18 (build Mar 14 2019 11:44:20) complex                        
  
 executed on             LinuxIFC date 2020.09.30  18:12:34
 running  128 mpi-ranks, with    1 threads/rank
 distrk:  each k-point on  128 cores,    1 groups
 distr:  one band on NCORES_PER_BAND=   4 cores,   32 groups


--------------------------------------------------------------------------------------------------------


 INCAR:
 POTCAR:    PAW_PBE C 08Apr2002                   
 POTCAR:    PAW_PBE Fe 06Sep2000                  
 POTCAR:    PAW_PBE H 15Jun2001                   
 POTCAR:    PAW_PBE N 08Apr2002                   
 POTCAR:    PAW_PBE O 08Apr2002                   
 POTCAR:    PAW_PBE C 08Apr2002                   
   VRHFIN =C: s2p2                                                              
   LEXCH  = PE                                                                  
   EATOM  =   147.1560 eV,   10.8157 Ry                                         
                                                                                
   TITEL  = PAW_PBE C 08Apr2002                                                 
   LULTRA =        F    use ultrasoft PP ?                                      
   IUNSCR =        1    unscreen: 0-lin 1-nonlin 2-no                           
   RPACOR =    1.200    partial core radius                                     
   POMASS =   12.011; ZVAL   =    4.000    mass and valenz                      
   RCORE  =    1.500    outmost cutoff radius                                   
   RWIGS  =    1.630; RWIGS  =    0.863    wigner-seitz radius (au A)           
   ENMAX  =  400.000; ENMIN  =  300.000 eV                                      
   ICORE  =        2    local potential                                         
   LCOR   =        T    correct aug charges                                     
   LPAW   =        T    paw PP                                                  
   EAUG   =  644.873                                                            
   DEXC   =    0.000                                                            
   RMAX   =    1.529    core radius for proj-oper                               
   RAUG   =    1.300    factor for augmentation sphere                          
   RDEP   =    1.501    radius for radial grids                                 
   RDEPT  =    1.300    core radius for aug-charge                              
                                                                                
   Atomic configuration                                                         
    4 entries                                                                   
     n  l   j            E        occ.                                          
     1  0  0.50      -273.3789   2.0000                                         
     2  0  0.50       -13.7508   2.0000                                         
     2  1  0.50        -5.2854   2.0000                                         
     3  2  1.50        -5.4423   0.0000                                         
   Description                                                                  
     l       E           TYP  RCUT    TYP  RCUT                                 
     0    -13.7508458     23  1.200                                             
     0     -8.2022199     23  1.200                                             
     1     -5.2854383     23  1.500                                             
     1     34.0145650     23  1.500                                             
     2     -5.4423304      7  1.500                                             
  local pseudopotential read in
  partial core-charges read in
  partial kinetic energy density read in
  atomic valenz-charges read in
  non local Contribution for L=           0  read in
    real space projection operators read in
  non local Contribution for L=           0  read in
    real space projection operators read in
  non local Contribution for L=           1  read in
    real space projection operators read in
  non local Contribution for L=           1  read in
    real space projection operators read in
    PAW grid and wavefunctions read in
 
   number of l-projection  operators is LMAX  =           4
   number of lm-projection operators is LMMAX =           8
 
 POTCAR:    PAW_PBE Fe 06Sep2000                  
   VRHFIN =Fe:  d7 s1                                                           
   LEXCH  = PE                                                                  
   EATOM  =   594.3153 eV,   43.6809 Ry                                         
                                                                                
   TITEL  = PAW_PBE Fe 06Sep2000                                                
   LULTRA =        F    use ultrasoft PP ?                                      
   IUNSCR =        1    unscreen: 0-lin 1-nonlin 2-no                           
   RPACOR =    2.000    partial core radius                                     
   POMASS =   55.847; ZVAL   =    8.000    mass and valenz                      
   RCORE  =    2.300    outmost cutoff radius                                   
   RWIGS  =    2.460; RWIGS  =    1.302    wigner-seitz radius (au A)           
   ENMAX  =  267.882; ENMIN  =  200.911 eV                                      
   RCLOC  =    1.701    cutoff for local pot                                    
   LCOR   =        T    correct aug charges                                     
   LPAW   =        T    paw PP                                                  
   EAUG   =  511.368                                                            
   DEXC   =    0.000                                                            
   RMAX   =    2.356    core radius for proj-oper                               
   RAUG   =    1.300    factor for augmentation sphere                          
   RDEP   =    2.442    radius for radial grids                                 
   RDEPT  =    1.890    core radius for aug-charge                              
                                                                                
   Atomic configuration                                                         
    9 entries                                                                   
     n  l   j            E        occ.                                          
     1  0  0.50     -6993.8440   2.0000                                         
     2  0  0.50      -814.6047   2.0000                                         
     2  1  1.50      -693.3689   6.0000                                         
     3  0  0.50       -89.4732   2.0000                                         
     3  1  1.50       -55.6373   6.0000                                         
     3  2  2.50        -3.8151   7.0000                                         
     4  0  0.50        -4.2551   1.0000                                         
     4  1  1.50        -3.4015   0.0000                                         
     4  3  2.50        -1.3606   0.0000                                         
   Description                                                                  
     l       E           TYP  RCUT    TYP  RCUT                                 
     2     -3.8151135     23  2.300                                             
     2     -5.1756961     23  2.300                                             
     0     -4.2550963     23  2.300                                             
     0      7.2035603     23  2.300                                             
     1     -2.7211652     23  2.300                                             
     1     18.4316424     23  2.300                                             
  local pseudopotential read in
  partial core-charges read in
  partial kinetic energy density read in
  atomic valenz-charges read in
  non local Contribution for L=           2  read in
    real space projection operators read in
  non local Contribution for L=           2  read in
    real space projection operators read in
  non local Contribution for L=           0  read in
    real space projection operators read in
  non local Contribution for L=           0  read in
    real space projection operators read in
  non local Contribution for L=           1  read in
    real space projection operators read in
  non local Contribution for L=           1  read in
    real space projection operators read in
    PAW grid and wavefunctions read in
 
   number of l-projection  operators is LMAX  =           6
   number of lm-projection operators is LMMAX =          18
 
 POTCAR:    PAW_PBE H 15Jun2001                   
   VRHFIN =H: ultrasoft test                                                    
   LEXCH  = PE                                                                  
   EATOM  =    12.4884 eV,    0.9179 Ry                                         
                                                                                
   TITEL  = PAW_PBE H 15Jun2001                                                 
   LULTRA =        F    use ultrasoft PP ?                                      
   IUNSCR =        0    unscreen: 0-lin 1-nonlin 2-no                           
   RPACOR =    0.000    partial core radius                                     
   POMASS =    1.000; ZVAL   =    1.000    mass and valenz                      
   RCORE  =    1.100    outmost cutoff radius                                   
   RWIGS  =    0.700; RWIGS  =    0.370    wigner-seitz radius (au A)           
   ENMAX  =  250.000; ENMIN  =  200.000 eV                                      
   RCLOC  =    0.701    cutoff for local pot                                    
   LCOR   =        T    correct aug charges                                     
   LPAW   =        T    paw PP                                                  
   EAUG   =  400.000                                                            
   RMAX   =    1.123    core radius for proj-oper                               
   RAUG   =    1.200    factor for augmentation sphere                          
   RDEP   =    1.112    radius for radial grids                                 
   RDEPT  =    0.926    core radius for aug-charge                              
                                                                                
   Atomic configuration                                                         
    2 entries                                                                   
     n  l   j            E        occ.                                          
     1  0  0.50        -6.4927   1.0000                                         
     2  1  0.50        -3.4015   0.0000                                         
   Description                                                                  
     l       E           TYP  RCUT    TYP  RCUT                                 
     0     -6.4927494     23  1.100                                             
     0      6.8029130     23  1.100                                             
     1     -4.0817478     23  1.100                                             
  local pseudopotential read in
  atomic valenz-charges read in
  non local Contribution for L=           0  read in
    real space projection operators read in
  non local Contribution for L=           0  read in
    real space projection operators read in
  non local Contribution for L=           1  read in
    real space projection operators read in
    PAW grid and wavefunctions read in
 
   number of l-projection  operators is LMAX  =           3
   number of lm-projection operators is LMMAX =           5
 
 POTCAR:    PAW_PBE N 08Apr2002                   
   VRHFIN =N: s2p3                                                              
   LEXCH  = PE                                                                  
   EATOM  =   264.5486 eV,   19.4438 Ry                                         
                                                                                
   TITEL  = PAW_PBE N 08Apr2002                                                 
   LULTRA =        F    use ultrasoft PP ?                                      
   IUNSCR =        1    unscreen: 0-lin 1-nonlin 2-no                           
   RPACOR =    1.200    partial core radius                                     
   POMASS =   14.001; ZVAL   =    5.000    mass and valenz                      
   RCORE  =    1.500    outmost cutoff radius                                   
   RWIGS  =    1.400; RWIGS  =    0.741    wigner-seitz radius (au A)           
   ENMAX  =  400.000; ENMIN  =  300.000 eV                                      
   ICORE  =        2    local potential                                         
   LCOR   =        T    correct aug charges                                     
   LPAW   =        T    paw PP                                                  
   EAUG   =  627.112                                                            
   DEXC   =    0.000                                                            
   RMAX   =    1.529    core radius for proj-oper                               
   RAUG   =    1.300    factor for augmentation sphere                          
   RDEP   =    1.514    radius for radial grids                                 
   RDEPT  =    1.338    core radius for aug-charge                              
                                                                                
   Atomic configuration                                                         
    4 entries                                                                   
     n  l   j            E        occ.                                          
     1  0  0.50      -384.7179   2.0000                                         
     2  0  0.50       -18.5828   2.0000                                         
     2  1  0.50        -7.0898   3.0000                                         
     3  2  1.50        -6.8029   0.0000                                         
   Description                                                                  
     l       E           TYP  RCUT    TYP  RCUT                                 
     0    -18.5828119     23  1.200                                             
     0    -13.5018863     23  1.200                                             
     1     -7.0897853     23  1.500                                             
     1      9.5240782     23  1.500                                             
     2     -6.8029130      7  1.500                                             
  local pseudopotential read in
  partial core-charges read in
  partial kinetic energy density read in
  atomic valenz-charges read in
  non local Contribution for L=           0  read in
    real space projection operators read in
  non local Contribution for L=           0  read in
    real space projection operators read in
  non local Contribution for L=           1  read in
    real space projection operators read in
  non local Contribution for L=           1  read in
    real space projection operators read in
    PAW grid and wavefunctions read in
 
   number of l-projection  operators is LMAX  =           4
   number of lm-projection operators is LMMAX =           8
 
 POTCAR:    PAW_PBE O 08Apr2002                   
   VRHFIN =O: s2p4                                                              
   LEXCH  = PE                                                                  
   EATOM  =   432.3788 eV,   31.7789 Ry                                         
                                                                                
   TITEL  = PAW_PBE O 08Apr2002                                                 
   LULTRA =        F    use ultrasoft PP ?                                      
   IUNSCR =        1    unscreen: 0-lin 1-nonlin 2-no                           
   RPACOR =    1.200    partial core radius                                     
   POMASS =   16.000; ZVAL   =    6.000    mass and valenz                      
   RCORE  =    1.520    outmost cutoff radius                                   
   RWIGS  =    1.550; RWIGS  =    0.820    wigner-seitz radius (au A)           
   ENMAX  =  400.000; ENMIN  =  300.000 eV                                      
   ICORE  =        2    local potential                                         
   LCOR   =        T    correct aug charges                                     
   LPAW   =        T    paw PP                                                  
   EAUG   =  605.392                                                            
   DEXC   =    0.000                                                            
   RMAX   =    1.553    core radius for proj-oper                               
   RAUG   =    1.300    factor for augmentation sphere                          
   RDEP   =    1.550    radius for radial grids                                 
   RDEPT  =    1.329    core radius for aug-charge                              
                                                                                
   Atomic configuration                                                         
    4 entries                                                                   
     n  l   j            E        occ.                                          
     1  0  0.50      -514.6923   2.0000                                         
     2  0  0.50       -23.9615   2.0000                                         
     2  1  0.50        -9.0305   4.0000                                         
     3  2  1.50        -9.5241   0.0000                                         
   Description                                                                  
     l       E           TYP  RCUT    TYP  RCUT                                 
     0    -23.9615318     23  1.200                                             
     0     -9.5240782     23  1.200                                             
     1     -9.0304911     23  1.520                                             
     1      8.1634956     23  1.520                                             
     2     -9.5240782      7  1.500                                             
  local pseudopotential read in
  partial core-charges read in
  partial kinetic energy density read in
  kinetic energy density of atom read in
  atomic valenz-charges read in
  non local Contribution for L=           0  read in
    real space projection operators read in
  non local Contribution for L=           0  read in
    real space projection operators read in
  non local Contribution for L=           1  read in
    real space projection operators read in
  non local Contribution for L=           1  read in
    real space projection operators read in
    PAW grid and wavefunctions read in
 
   number of l-projection  operators is LMAX  =           4
   number of lm-projection operators is LMMAX =           8
 
 Optimization of the real space projectors (new method)

 maximal supplied QI-value         = 25.13
 optimisation between [QCUT,QGAM] = [ 12.32, 24.88] = [ 42.47,173.37] Ry 
 Optimized for a Real-space Cutoff    1.06 Angstroem

   l    n(q)    QCUT    max X(q) W(low)/X(q) W(high)/X(q)  e(spline) 
   0      8    12.315   115.676    0.34E-03    0.18E-03    0.23E-06
   0      8    12.315    87.132    0.34E-03    0.18E-03    0.22E-06
   1      7    12.315     4.429    0.45E-03    0.12E-03    0.18E-06
   1      7    12.315     2.733    0.35E-03    0.97E-04    0.15E-06
 Optimization of the real space projectors (new method)

 maximal supplied QI-value         = 16.25
 optimisation between [QCUT,QGAM] = [ 12.51, 25.03] = [ 43.85,175.40] Ry 
 Optimized for a Real-space Cutoff    1.35 Angstroem

   l    n(q)    QCUT    max X(q) W(low)/X(q) W(high)/X(q)  e(spline) 
   2      9    12.514    80.901    0.12E-03    0.34E-03    0.58E-06
   2      9    12.514    75.754    0.12E-03    0.34E-03    0.59E-06
   0     10    12.514    58.752    0.17E-03    0.81E-04    0.93E-07
   0     10    12.514    30.679    0.15E-03    0.74E-04    0.88E-07
   1     10    12.514    17.977    0.11E-03    0.79E-04    0.24E-06
   1     10    12.514    13.559    0.97E-04    0.61E-04    0.20E-06
 Optimization of the real space projectors (new method)

 maximal supplied QI-value         = 34.20
 optimisation between [QCUT,QGAM] = [ 12.31, 24.97] = [ 42.46,174.58] Ry 
 Optimized for a Real-space Cutoff    1.00 Angstroem

   l    n(q)    QCUT    max X(q) W(low)/X(q) W(high)/X(q)  e(spline) 
   0      7    12.313    19.460    0.14E-03    0.42E-03    0.16E-06
   0      7    12.313    12.209    0.12E-03    0.40E-03    0.16E-06
   1      7    12.313     4.655    0.33E-03    0.59E-03    0.89E-07
 Optimization of the real space projectors (new method)

 maximal supplied QI-value         = 25.13
 optimisation between [QCUT,QGAM] = [ 12.32, 24.88] = [ 42.47,173.37] Ry 
 Optimized for a Real-space Cutoff    1.20 Angstroem

   l    n(q)    QCUT    max X(q) W(low)/X(q) W(high)/X(q)  e(spline) 
   0      9    12.315    79.467    0.14E-03    0.22E-04    0.37E-06
   0      9    12.315    66.151    0.14E-03    0.23E-04    0.36E-06
   1      8    12.315    22.077    0.30E-03    0.54E-03    0.45E-06
   1      8    12.315    15.894    0.30E-03    0.55E-03    0.45E-06
 Optimization of the real space projectors (new method)

 maximal supplied QI-value         = 24.76
 optimisation between [QCUT,QGAM] = [ 12.38, 25.00] = [ 42.90,175.06] Ry 
 Optimized for a Real-space Cutoff    1.13 Angstroem

   l    n(q)    QCUT    max X(q) W(low)/X(q) W(high)/X(q)  e(spline) 
   0      8    12.378    20.381    0.16E-03    0.54E-05    0.27E-06
   0      8    12.378    15.268    0.17E-03    0.61E-05    0.29E-06
   1      8    12.378     5.964    0.38E-03    0.23E-03    0.28E-06
   1      8    12.378     5.382    0.33E-03    0.20E-03    0.25E-06
  PAW_PBE C 08Apr2002                   :
 energy of atom  1       EATOM= -147.1560
 kinetic energy error for atom=    0.0057 (will be added to EATOM!!)
  PAW_PBE Fe 06Sep2000                  :
 energy of atom  2       EATOM= -594.3153
 kinetic energy error for atom=    0.0017 (will be added to EATOM!!)
  PAW_PBE H 15Jun2001                   :
 energy of atom  3       EATOM=  -12.4884
 kinetic energy error for atom=    0.0004 (will be added to EATOM!!)
  PAW_PBE N 08Apr2002                   :
 energy of atom  4       EATOM= -264.5486
 kinetic energy error for atom=    0.0103 (will be added to EATOM!!)
  PAW_PBE O 08Apr2002                   :
 energy of atom  5       EATOM= -432.3788
 kinetic energy error for atom=    0.0168 (will be added to EATOM!!)
 
 
 POSCAR:  C Fe  H  N  O
  positions in direct lattice
  velocities in cartesian coordinates
 exchange correlation table for  LEXCH =        8
   RHO(1)=    0.500       N(1)  =     2000
   RHO(2)=  100.500       N(2)  =     4000
 


--------------------------------------------------------------------------------------------------------


 ion  position               nearest neighbor table
   1  0.763  0.951  0.995- 107 1.09 117 1.36  65 1.40
   2  0.892  0.954  0.313- 112 1.08 118 1.34  65 1.39
   3  0.750  0.800  0.843- 116 1.09 119 1.36  66 1.40
   4  0.736  0.451  0.493- 110 1.09 120 1.36  67 1.40
   5  0.621  0.295  0.024- 111 1.08 121 1.34  68 1.39
   6  0.108  0.793  0.030- 115 1.08 122 1.34  69 1.39
   7  0.607  0.454  0.812- 101 1.08 123 1.34  67 1.39
   8  0.749  0.300  0.342- 113 1.09 124 1.36  68 1.40
   9  0.377  0.453  0.314- 114 1.08 125 1.34  70 1.39
  10  0.237  0.797  0.348- 104 1.09 126 1.36  69 1.40
  11  0.122  0.953  0.817- 105 1.08 127 1.34  71 1.39
  12  0.391  0.293  0.527- 102 1.08 128 1.34  72 1.39
  13  0.878  0.795  0.526- 108 1.08 129 1.34  66 1.39
  14  0.249  0.948  0.499- 109 1.09 130 1.36  71 1.40
  15  0.263  0.297  0.846- 106 1.09 131 1.36  72 1.40
  16  0.250  0.448  0.997- 103 1.09 132 1.36  70 1.40
  17  0.699  0.030  0.325- 141 1.23 133 1.41  33 1.47
  18  0.846  0.048  0.958- 142 1.23 133 1.41  34 1.47
  19  0.823  0.702  0.880- 143 1.23 134 1.41  35 1.47
  20  0.653  0.548  0.458- 144 1.23 135 1.41  36 1.47
  21  0.676  0.202  0.379- 145 1.23 136 1.41  37 1.47
  22  0.301  0.718  0.018- 146 1.23 137 1.41  38 1.47
  23  0.800  0.530  0.824- 147 1.23 135 1.41  39 1.47
  24  0.823  0.220  0.013- 148 1.23 136 1.41  40 1.47
  25  0.175  0.528  0.326- 149 1.23 138 1.41  41 1.47
  26  0.153  0.700  0.384- 150 1.23 137 1.42  42 1.47
  27  0.177  0.046  0.461- 151 1.23 139 1.41  43 1.47
  28  0.346  0.200  0.882- 152 1.23 140 1.41  44 1.47
  29  0.676  0.720  0.513- 153 1.23 134 1.41  45 1.47
  30  0.324  0.027  0.828- 154 1.23 139 1.41  46 1.47
  31  0.199  0.218  0.516- 155 1.23 140 1.41  47 1.47
  32  0.323  0.546  0.960- 156 1.23 138 1.41  48 1.47
  33  0.698  0.074  0.337-  49 1.39  73 1.41  17 1.47
  34  0.836  0.092  0.973-  50 1.39  73 1.41  18 1.47
  35  0.812  0.658  0.865-  51 1.39  74 1.41  19 1.47
  36  0.663  0.592  0.473-  52 1.39  75 1.41  20 1.47
  37  0.687  0.158  0.365-  53 1.39  76 1.41  21 1.47
  38  0.302  0.674  0.005-  54 1.39  77 1.41  22 1.47
  39  0.801  0.574  0.837-  55 1.39  75 1.41  23 1.47
  40  0.825  0.176  0.001-  56 1.39  76 1.41  24 1.47
  41  0.173  0.572  0.339-  57 1.39  78 1.41  25 1.47
  42  0.163  0.656  0.368-  58 1.39  77 1.41  26 1.47
  43  0.187  0.089  0.476-  59 1.39  79 1.41  27 1.47
  44  0.336  0.156  0.868-  60 1.39  80 1.41  28 1.47
  45  0.674  0.676  0.501-  61 1.39  74 1.41  29 1.47
  46  0.326  0.072  0.840-  62 1.39  79 1.41  30 1.47
  47  0.198  0.174  0.504-  63 1.39  80 1.41  31 1.47
  48  0.312  0.590  0.976-  64 1.39  78 1.41  32 1.47
  49  0.629  0.087  0.522-  88 1.09  33 1.39  53 1.40
  50  0.901  0.122  0.804-  99 1.09  34 1.39  56 1.40
  51  0.876  0.628  0.035-  93 1.09  35 1.39  55 1.40
  52  0.598  0.622  0.303-  90 1.09  36 1.39  61 1.40
  53  0.623  0.128  0.535-  98 1.09  37 1.39  49 1.40
  54  0.371  0.661  0.820-  96 1.09  38 1.39  64 1.40
  55  0.870  0.587  0.022-  86 1.09  39 1.39  51 1.40
  56  0.895  0.164  0.817-  87 1.09  40 1.39  50 1.40
  57  0.104  0.584  0.523-  95 1.09  41 1.39  58 1.40
  58  0.098  0.626  0.537-  91 1.09  42 1.39  57 1.40
  59  0.123  0.119  0.306-  92 1.09  43 1.39  63 1.40
  60  0.401  0.126  0.038-  85 1.09  44 1.39  62 1.40
  61  0.605  0.664  0.317-  89 1.09  45 1.39  52 1.40
  62  0.395  0.084  0.024- 100 1.09  46 1.39  60 1.40
  63  0.129  0.161  0.319-  94 1.09  47 1.39  59 1.40
  64  0.376  0.620  0.806-  97 1.09  48 1.39  54 1.40
  65  0.800  0.977  0.144-   2 1.39   1 1.40 133 1.42
  66  0.783  0.773  0.694-  13 1.39   3 1.40 134 1.42
  67  0.699  0.477  0.642-   7 1.39   4 1.40 135 1.42
  68  0.716  0.273  0.192-   5 1.39   8 1.40 136 1.42
  69  0.200  0.770  0.200-   6 1.39  10 1.40 137 1.42
  70  0.282  0.475  0.146-   9 1.39  16 1.40 138 1.42
  71  0.217  0.975  0.648-  11 1.39  14 1.40 139 1.42
  72  0.300  0.271  0.697-  12 1.39  15 1.40 140 1.42
  73  0.764  0.104  0.162-  33 1.41  34 1.41  76 1.43
  74  0.740  0.646  0.676-  45 1.41  35 1.41  75 1.43
  75  0.735  0.604  0.662-  39 1.41  36 1.41  74 1.43
  76  0.759  0.146  0.176-  40 1.41  37 1.41  73 1.43
  77  0.235  0.644  0.180-  38 1.41  42 1.41  78 1.43
  78  0.240  0.601  0.165-  41 1.41  48 1.41  77 1.43
  79  0.259  0.101  0.665-  46 1.41  43 1.41  80 1.43
  80  0.264  0.144  0.679-  47 1.41  44 1.41  79 1.43
  81  0.944  0.874  0.920- 122 2.00 127 2.00 117 2.00 119 2.00
  82  0.056  0.874  0.422- 118 2.00 129 2.00 126 2.00 130 2.00
  83  0.555  0.374  0.418- 128 2.00 125 2.00 120 2.00 124 2.00
  84  0.443  0.374  0.920- 123 2.00 121 2.00 131 2.00 132 2.00
  85  0.453  0.136  0.183-  60 1.09
  86  0.917  0.563  0.156-  55 1.09
  87  0.942  0.187  0.683-  56 1.09
  88  0.582  0.063  0.656-  49 1.09
  89  0.558  0.688  0.182-  61 1.09
  90  0.546  0.612  0.158-  52 1.09
  91  0.046  0.635  0.683-  58 1.09
  92  0.071  0.110  0.160-  59 1.09
  93  0.928  0.638  0.181-  51 1.09
  94  0.081  0.185  0.185-  63 1.09
  95  0.057  0.560  0.657-  57 1.09
  96  0.418  0.685  0.686-  54 1.09
  97  0.428  0.610  0.660-  64 1.09
  98  0.571  0.138  0.680-  53 1.09
  99  0.953  0.112  0.658-  50 1.09
 100  0.442  0.060  0.159-  62 1.09
 101  0.554  0.464  0.956-   7 1.08
 102  0.444  0.284  0.383-  12 1.08
 103  0.183  0.454  0.840-  16 1.09
 104  0.303  0.791  0.505-  10 1.09
 105  0.071  0.963  0.960-  11 1.08
 106  0.196  0.291  0.002-  15 1.09
 107  0.697  0.957  0.838-   1 1.09
 108  0.930  0.784  0.382-  13 1.08
 109  0.316  0.954  0.343-  14 1.09
 110  0.802  0.457  0.337-   4 1.09
 111  0.570  0.285  0.880-   5 1.08
 112  0.945  0.964  0.458-   2 1.08
 113  0.816  0.294  0.498-   8 1.09
 114  0.428  0.463  0.458-   9 1.08
 115  0.055  0.784  0.886-   6 1.08
 116  0.683  0.794  0.999-   3 1.09
 117  0.831  0.914  0.072-   1 1.36 118 1.38  81 2.00
 118  0.910  0.917  0.268-   2 1.34 117 1.38  82 2.00
 119  0.824  0.836  0.767-   3 1.36 129 1.38  81 2.00
 120  0.668  0.414  0.571-   4 1.36 123 1.38  83 2.00
 121  0.596  0.332  0.070-   5 1.34 124 1.38  84 2.00
 122  0.090  0.831  0.075-   6 1.34 126 1.38  81 2.00
 123  0.589  0.417  0.766-   7 1.34 120 1.38  84 2.00
 124  0.675  0.336  0.265-   8 1.36 121 1.38  83 2.00
 125  0.401  0.415  0.268-   9 1.34 132 1.38  83 2.00
 126  0.169  0.834  0.270-  10 1.36 122 1.38  82 2.00
 127  0.097  0.915  0.771-  11 1.34 130 1.38  81 2.00
 128  0.409  0.331  0.572-  12 1.34 131 1.38  83 2.00
 129  0.903  0.832  0.572-  13 1.34 119 1.38  82 2.00
 130  0.176  0.912  0.576-  14 1.36 127 1.38  82 2.00
 131  0.330  0.334  0.768-  15 1.36 128 1.38  84 2.00
 132  0.323  0.412  0.073-  16 1.36 125 1.38  84 2.00
 133  0.771  0.020  0.132-  17 1.41  18 1.41  65 1.42
 134  0.749  0.731  0.706-  29 1.41  19 1.41  66 1.42
 135  0.728  0.520  0.631-  23 1.41  20 1.41  67 1.42
 136  0.750  0.231  0.205-  24 1.41  21 1.41  68 1.42
 137  0.229  0.728  0.211-  22 1.41  26 1.42  69 1.42
 138  0.248  0.517  0.134-  25 1.41  32 1.41  70 1.42
 139  0.251  0.017  0.636-  30 1.41  27 1.41  71 1.42
 140  0.270  0.228  0.709-  31 1.41  28 1.41  72 1.42
 141  0.640  0.003  0.472-  17 1.23
 142  0.915  0.036  0.805-  18 1.23
 143  0.893  0.714  0.034-  19 1.23
 144  0.583  0.536  0.305-  20 1.23
 145  0.606  0.214  0.533-  21 1.23
 146  0.360  0.744  0.871-  22 1.23
 147  0.859  0.503  0.972-  23 1.23
 148  0.881  0.247  0.865-  24 1.23
 149  0.117  0.501  0.473-  25 1.23
 150  0.083  0.712  0.537-  26 1.23
 151  0.107  0.034  0.308-  27 1.23
 152  0.416  0.212  0.036-  28 1.23
 153  0.619  0.747  0.366-  29 1.23
 154  0.383  0.001  0.975-  30 1.23
 155  0.140  0.244  0.369-  31 1.23
 156  0.393  0.534  0.807-  32 1.23
 

IMPORTANT INFORMATION: All symmetrisations will be switched off!
NOSYMM: (Re-)initialisation of all symmetry stuff for point group C_1.


----------------------------------------------------------------------------------------

                                     Primitive cell                                     

  volume of cell :    1701.1301

  direct lattice vectors                    reciprocal lattice vectors
     8.799792013  0.000516305 -0.003067910     0.113639060 -0.000018039  0.000027909
     0.004522296 32.903928989  2.854029665    -0.000002998  0.030689528 -0.003435860
    -0.001351607  0.664202506  5.932740843     0.000060207 -0.014763645  0.170209041

  length of vectors
     8.799792563 33.027474149  5.969805751     0.113639065  0.030881261  0.170848139

  position of ions in fractional coordinates (direct lattice)
     0.763310054  0.951014694  0.994567967
     0.891564498  0.954412727  0.313393430
     0.750457282  0.799515546  0.843056391
     0.735643364  0.451080699  0.493092375
     0.621390637  0.294876042  0.023912208
     0.108228612  0.793329796  0.029808612
     0.607367366  0.454432151  0.811746665
     0.748559800  0.299637863  0.341629658
     0.376699979  0.453006567  0.314491045
     0.236788576  0.796775047  0.348278658
     0.122165283  0.952942076  0.816837513
     0.390955168  0.293395096  0.527423447
     0.878093886  0.794800694  0.525857193
     0.249344079  0.948209158  0.499247930
     0.262563212  0.296848751  0.845827658
     0.249578295  0.448357701  0.996559149
     0.698880600  0.030208418  0.324882460
     0.846020020  0.048105492  0.958455834
     0.823318520  0.702105829  0.879996816
     0.652626530  0.548160057  0.458034702
     0.676288231  0.202234408  0.379453640
     0.301135663  0.717651605  0.017939339
     0.799992179  0.530139213  0.824415860
     0.823147544  0.220357211  0.012917161
     0.175154201  0.527518797  0.326063703
     0.153305997  0.699634469  0.383662799
     0.176662513  0.045591434  0.461376673
     0.345865656  0.199746805  0.882486638
     0.676456791  0.720359038  0.513255195
     0.323966307  0.027489666  0.827842840
     0.198542720  0.217601987  0.515976252
     0.322693532  0.545770074  0.960214751
     0.697959206  0.074299024  0.337185287
     0.835954054  0.092042409  0.973082509
     0.812026489  0.658226362  0.865257874
     0.663048336  0.592088463  0.472721681
     0.687351862  0.158339232  0.364962976
     0.301750153  0.673599830  0.004843915
     0.800983131  0.574214459  0.837072129
     0.825382072  0.176196453  0.001018527
     0.173481087  0.571631537  0.339065380
     0.163339790  0.655725762  0.368486099
     0.187416133  0.089479260  0.476043075
     0.335871076  0.155796862  0.868060632
     0.674118891  0.676213850  0.501017567
     0.325648436  0.071634444  0.840080536
     0.197688763  0.173507356  0.503901466
     0.311848325  0.589630272  0.975501098
     0.628855940  0.086680219  0.521639382
     0.900884946  0.121989801  0.803615674
     0.876192008  0.628260003  0.035349878
     0.598380183  0.622088442  0.303113716
     0.622996182  0.128424192  0.535035273
     0.370824352  0.661306008  0.820100632
     0.870051465  0.586523815  0.021853000
     0.894920042  0.163755146  0.816930756
     0.103941397  0.583987572  0.523391169
     0.098213810  0.625721537  0.537444174
     0.122938348  0.119387046  0.305936765
     0.400885384  0.125855166  0.037654539
     0.604670116  0.663848433  0.316545237
     0.395065169  0.084086017  0.024315111
     0.128610460  0.161125135  0.319343595
     0.376397771  0.619601719  0.805921041
     0.800355194  0.977319494  0.143515406
     0.783135405  0.772913901  0.693844226
     0.698586924  0.477351224  0.642182946
     0.716202664  0.273007356  0.192427229
     0.199558138  0.770446363  0.199624086
     0.282058501  0.474941696  0.145964389
     0.216894467  0.974825941  0.648449471
     0.299796013  0.270509258  0.697253672
     0.764078815  0.103947200  0.161718369
     0.740108644  0.646458870  0.676261056
     0.735026548  0.603919690  0.661562404
     0.759198077  0.146496829  0.176200811
     0.235317835  0.643902898  0.179713921
     0.239995763  0.601381440  0.164502846
     0.259219782  0.101322584  0.664913031
     0.263952583  0.143870833  0.679423571
     0.943716790  0.874166164  0.920385723
     0.056245724  0.873593795  0.422189626
     0.555287079  0.374255753  0.418313154
     0.442709468  0.373669270  0.919947255
     0.453159276  0.135623936  0.183079374
     0.917004374  0.562796948  0.156202731
     0.941875573  0.187459998  0.682511048
     0.581742330  0.062988678  0.655890060
     0.558027718  0.687596539  0.181927360
     0.546024802  0.612356193  0.157625726
     0.045836759  0.635431017  0.682901523
     0.071071276  0.109580311  0.160401337
     0.928239443  0.638012011  0.180918124
     0.081432698  0.184811131  0.185011592
     0.056691877  0.560247803  0.657365385
     0.418195872  0.685036630  0.686283854
     0.428325360  0.609863286  0.660271339
     0.571031549  0.138223364  0.680457008
     0.953229084  0.112208119  0.658339989
     0.442083890  0.060388466  0.158839697
     0.554276405  0.464171528  0.956080761
     0.444154020  0.283593986  0.383339874
     0.182671748  0.453818429  0.840438005
     0.303458993  0.790709084  0.504581469
     0.070562183  0.963291629  0.960461560
     0.196024886  0.290779848  0.002121361
     0.696800984  0.957120118  0.838126940
     0.929790817  0.784471788  0.382258230
     0.316227969  0.953633609  0.343236346
     0.802184141  0.457206494  0.336817205
     0.569898319  0.284530913  0.880126258
     0.944667628  0.964173235  0.457736635
     0.815501657  0.294223546  0.497729234
     0.428216925  0.463311793  0.458378664
     0.054924083  0.783518046  0.885779477
     0.683372157  0.794072863  0.998868802
     0.831105488  0.914035022  0.072347949
     0.910218650  0.916531577  0.268088062
     0.824158048  0.835678043  0.767045211
     0.667823908  0.414105718  0.570521569
     0.596469052  0.332456303  0.070069925
     0.089669958  0.831225936  0.074825780
     0.588699320  0.416578387  0.766142881
     0.674869376  0.335798250  0.265098841
     0.401454138  0.415435244  0.268187400
     0.168994561  0.833757586  0.270347944
     0.097384926  0.915361302  0.770623624
     0.409423248  0.331298140  0.572410623
     0.902819490  0.832367600  0.572298059
     0.175790966  0.912037751  0.575681914
     0.330204059  0.333829340  0.767877939
     0.323073257  0.412159446  0.073015100
     0.770786429  0.019889600  0.132093751
     0.749270681  0.730531108  0.706026670
     0.728182437  0.519900908  0.631245020
     0.750139250  0.230610521  0.205194105
     0.229146387  0.727881576  0.210857494
     0.248352972  0.517344995  0.133708425
     0.250615068  0.017226686  0.635743515
     0.270352926  0.227935374  0.708858188
     0.640123268  0.003448615  0.472091224
     0.915421270  0.035942656  0.805179765
     0.893366866  0.714026827  0.033565804
     0.582715204  0.536044772  0.304978489
     0.606442871  0.214212376  0.532947319
     0.360171209  0.744454655  0.871254423
     0.858697146  0.503330586  0.971586020
     0.880920841  0.247235796  0.865411242
     0.116741582  0.500610457  0.472734530
     0.083428304  0.711766792  0.536608443
     0.107022742  0.033623925  0.307571842
     0.415506304  0.211950872  0.035514357
     0.618840110  0.747285935  0.365709751
     0.382532447  0.000637580  0.974823997
     0.139821788  0.244354184  0.368504934
     0.392706846  0.533862734  0.806649750

  ion indices of the primitive-cell ions
   primitive index   ion index
                 1           1
                 2           2
                 3           3
                 4           4
                 5           5
                 6           6
                 7           7
                 8           8
                 9           9
                10          10
                11          11
                12          12
                13          13
                14          14
                15          15
                16          16
                17          17
                18          18
                19          19
                20          20
                21          21
                22          22
                23          23
                24          24
                25          25
                26          26
                27          27
                28          28
                29          29
                30          30
                31          31
                32          32
                33          33
                34          34
                35          35
                36          36
                37          37
                38          38
                39          39
                40          40
                41          41
                42          42
                43          43
                44          44
                45          45
                46          46
                47          47
                48          48
                49          49
                50          50
                51          51
                52          52
                53          53
                54          54
                55          55
                56          56
                57          57
                58          58
                59          59
                60          60
                61          61
                62          62
                63          63
                64          64
                65          65
                66          66
                67          67
                68          68
                69          69
                70          70
                71          71
                72          72
                73          73
                74          74
                75          75
                76          76
                77          77
                78          78
                79          79
                80          80
                81          81
                82          82
                83          83
                84          84
                85          85
                86          86
                87          87
                88          88
                89          89
                90          90
                91          91
                92          92
                93          93
                94          94
                95          95
                96          96
                97          97
                98          98
                99          99
               100         100
               101         101
               102         102
               103         103
               104         104
               105         105
               106         106
               107         107
               108         108
               109         109
               110         110
               111         111
               112         112
               113         113
               114         114
               115         115
               116         116
               117         117
               118         118
               119         119
               120         120
               121         121
               122         122
               123         123
               124         124
               125         125
               126         126
               127         127
               128         128
               129         129
               130         130
               131         131
               132         132
               133         133
               134         134
               135         135
               136         136
               137         137
               138         138
               139         139
               140         140
               141         141
               142         142
               143         143
               144         144
               145         145
               146         146
               147         147
               148         148
               149         149
               150         150
               151         151
               152         152
               153         153
               154         154
               155         155
               156         156

----------------------------------------------------------------------------------------

 
 

Automatic generation of k-mesh.
 generate k-points for:    3    1    4
Space group operators:
 irot       det(A)        alpha          n_x          n_y          n_z        tau_x        tau_y        tau_z
    1     1.000000     0.000000     1.000000     0.000000     0.000000     0.000000     0.000000     0.000000
 
 Subroutine IBZKPT returns following result:
 ===========================================
 
 Found      7 irreducible k-points:
 
 Following reciprocal coordinates:
            Coordinates               Weight
  0.000000  0.000000  0.000000      1.000000
  0.333333 -0.000000  0.000000      2.000000
  0.000000 -0.000000  0.250000      2.000000
  0.333333 -0.000000  0.250000      2.000000
 -0.333333 -0.000000  0.250000      2.000000
  0.000000 -0.000000  0.500000      1.000000
  0.333333 -0.000000  0.500000      2.000000
 
 Following cartesian coordinates:
            Coordinates               Weight
  0.000000  0.000000  0.000000      1.000000
  0.037880 -0.000006  0.000009      2.000000
  0.000015 -0.003691  0.042552      2.000000
  0.037895 -0.003697  0.042562      2.000000
 -0.037865 -0.003685  0.042543      2.000000
  0.000030 -0.007382  0.085105      1.000000
  0.037910 -0.007388  0.085114      2.000000
 


--------------------------------------------------------------------------------------------------------




 Dimension of arrays:
   k-points           NKPTS =      7   k-points in BZ     NKDIM =      7   number of bands    NBANDS=    384
   number of dos      NEDOS =    301   number of ions     NIONS =    156
   non local maximal  LDIM  =      6   non local SUM 2l+1 LMDIM =     18
   total plane-waves  NPLWV = 388800
   max r-space proj   IRMAX =   2384   max aug-charges    IRDMAX=   8340
   dimension x,y,z NGX =    54 NGY =  200 NGZ =   36
   dimension x,y,z NGXF=   108 NGYF=  400 NGZF=   72
   support grid    NGXF=   108 NGYF=  400 NGZF=   72
   ions per type =              80   4  32  24  16
   NGX,Y,Z   is equivalent  to a cutoff of  10.20, 10.07, 10.03 a.u.
   NGXF,Y,Z  is equivalent  to a cutoff of  20.40, 20.13, 20.05 a.u.

 SYSTEM =  flex_MOF                                
 POSCAR =   C Fe  H  N  O                          

 Startparameter for this run:
   NWRITE =      2    write-flag & timer
   PREC   = normal    normal or accurate (medium, high low for compatibility)
   ISTART =      0    job   : 0-new  1-cont  2-samecut
   ICHARG =      2    charge: 1-file 2-atom 10-const
   ISPIN  =      2    spin polarized calculation?
   LNONCOLLINEAR =      F non collinear calculations
   LSORBIT =      F    spin-orbit coupling
   INIWAV =      1    electr: 0-lowe 1-rand  2-diag
   LASPH  =      F    aspherical Exc in radial PAW
   METAGGA=      F    non-selfconsistent MetaGGA calc.

 Electronic Relaxation 1
   ENCUT  =  600.0 eV  44.10 Ry    6.64 a.u.  17.58 65.96 11.92*2*pi/ulx,y,z
   ENINI  =  600.0     initial cutoff
   ENAUG  =  644.9 eV  augmentation charge cutoff
   NELM   =    200;   NELMIN=  3; NELMDL= -8     # of ELM steps 
   EDIFF  = 0.1E-05   stopping-criterion for ELM
   LREAL  =      T    real-space projection
   NLSPLINE    = F    spline interpolate recip. space projectors
   LCOMPAT=      F    compatible to vasp.4.4
   GGA_COMPAT  = T    GGA compatible to vasp.4.4-vasp.4.6
   LMAXPAW     = -100 max onsite density
   LMAXMIX     =    2 max onsite mixed and CHGCAR
   VOSKOWN=      0    Vosko Wilk Nusair interpolation
   ROPT   =   -0.00050  -0.00050  -0.00050  -0.00050
   ROPT   =   -0.00050
 Ionic relaxation
   EDIFFG = -.1E-01   stopping-criterion for IOM
   NSW    =   1000    number of steps for IOM
   NBLOCK =      1;   KBLOCK =   1000    inner block; outer block 
   IBRION =      2    ionic relax: 0-MD 1-quasi-New 2-CG
   NFREE  =      1    steps in history (QN), initial steepest desc. (CG)
   ISIF   =      4    stress and relaxation
   IWAVPR =     11    prediction:  0-non 1-charg 2-wave 3-comb
   ISYM   =      0    0-nonsym 1-usesym 2-fastsym
   LCORR  =      T    Harris-Foulkes like correction to forces

   POTIM  = 0.5000    time-step for ionic-motion
   TEIN   =    0.0    initial temperature
   TEBEG  =    0.0;   TEEND  =   0.0 temperature during run
   SMASS  =  -3.00    Nose mass-parameter (am)
   estimated Nose-frequenzy (Omega)   =  0.10E-29 period in steps = 0.13E+47 mass=  -0.177E-26a.u.
   SCALEE = 1.0000    scale energy and forces
   NPACO  =    256;   APACO  = 16.0  distance and # of slots for P.C.
   PSTRESS=    0.0 pullay stress

  Mass of Ions in am
   POMASS =  12.01 55.85  1.00 14.00 16.00
  Ionic Valenz
   ZVAL   =   4.00  8.00  1.00  5.00  6.00
  Atomic Wigner-Seitz radii
   RWIGS  =  -1.00 -1.00 -1.00 -1.00 -1.00
  virtual crystal weights 
   VCA    =   1.00  1.00  1.00  1.00  1.00
   NELECT =     600.0000    total number of electrons
   NUPDOWN=      -1.0000    fix difference up-down

 DOS related values:
   EMIN   =  10.00;   EMAX   =-10.00  energy-range for DOS
   EFERMI =   0.00
   ISMEAR =     0;   SIGMA  =   0.05  broadening in eV -4-tet -1-fermi 0-gaus

 Electronic relaxation 2 (details)
   IALGO  =     38    algorithm
   LDIAG  =      T    sub-space diagonalisation (order eigenvalues)
   LSUBROT=      F    optimize rotation matrix (better conditioning)
   TURBO    =      0    0=normal 1=particle mesh
   IRESTART =      0    0=no restart 2=restart with 2 vectors
   NREBOOT  =      0    no. of reboots
   NMIN     =      0    reboot dimension
   EREF     =   0.00    reference energy to select bands
   IMIX   =      4    mixing-type and parameters
     AMIX     =   0.40;   BMIX     =  1.00
     AMIX_MAG =   1.60;   BMIX_MAG =  1.00
     AMIN     =   0.10
     WC   =   100.;   INIMIX=   1;  MIXPRE=   1;  MAXMIX= -45

 Intra band minimization:
   WEIMIN = 0.0010     energy-eigenvalue tresh-hold
   EBREAK =  0.65E-09  absolut break condition
   DEPER  =   0.30     relativ break condition  

   TIME   =   0.40     timestep for ELM

  volume/ion in A,a.u.               =      10.90        73.59
  Fermi-wavevector in a.u.,A,eV,Ry     =   1.156679  2.185806 18.203311  1.337906
  Thomas-Fermi vector in A             =   2.293297
 
 Write flags
   LWAVE        =      T    write WAVECAR
   LDOWNSAMPLE  =      F    k-point downsampling of WAVECAR
   LCHARG       =      T    write CHGCAR
   LVTOT        =      F    write LOCPOT, total local potential
   LVHAR        =      F    write LOCPOT, Hartree potential only
   LELF         =      F    write electronic localiz. function (ELF)
   LORBIT       =      0    0 simple, 1 ext, 2 COOP (PROOUT), +10 PAW based schemes


 Dipole corrections
   LMONO  =      F    monopole corrections only (constant potential shift)
   LDIPOL =      F    correct potential (dipole corrections)
   IDIPOL =      0    1-x, 2-y, 3-z, 4-all directions 
   EPSILON=  1.0000000 bulk dielectric constant

 Exchange correlation treatment:
   GGA     =    PE    GGA type
   LEXCH   =     8    internal setting for exchange type
   VOSKOWN=      0    Vosko Wilk Nusair interpolation
   LHFCALC =     F    Hartree Fock is set to
   LHFONE  =     F    Hartree Fock one center treatment
   AEXX    =    0.0000 exact exchange contribution

 Linear response parameters
   LEPSILON=     F    determine dielectric tensor
   LRPA    =     F    only Hartree local field effects (RPA)
   LNABLA  =     F    use nabla operator in PAW spheres
   LVEL    =     F    velocity operator in full k-point grid
   LINTERFAST=   F  fast interpolation
   KINTER  =     0    interpolate to denser k-point grid
   CSHIFT  =0.1000    complex shift for real part using Kramers Kronig
   OMEGAMAX=  -1.0    maximum frequency
   DEG_THRESHOLD= 0.2000000E-02 threshold for treating states as degnerate
   RTIME   =   -0.100 relaxation time in fs
  (WPLASMAI=    0.000 imaginary part of plasma frequency in eV, 0.658/RTIME)
   DFIELD  = 0.0000000 0.0000000 0.0000000 field for delta impulse in time
 
 Orbital magnetization related:
   ORBITALMAG=     F  switch on orbital magnetization
   LCHIMAG   =     F  perturbation theory with respect to B field
   DQ        =  0.001000  dq finite difference perturbation B field
   LLRAUG    =     F  two centre corrections for induced B field



--------------------------------------------------------------------------------------------------------


 conjugate gradient relaxation of ions
 charge density and potential will be updated during run
 spin polarized calculation
 Variant of blocked Davidson
 Davidson routine will perform the subspace rotation
 perform sub-space diagonalisation
    after iterative eigenvector-optimisation
 modified Broyden-mixing scheme, WC =      100.0
 initial mixing is a Kerker type mixing with AMIX =  0.4000 and BMIX =      1.0000
 Hartree-type preconditioning will be used
 using additional bands           84
 real space projection scheme for non local part
 use partial core corrections
 calculate Harris-corrections to forces 
   (improved forces if not selfconsistent)
 use gradient corrections 
 use of overlap-Matrix (Vanderbilt PP)
 Gauss-broadening in eV      SIGMA  =   0.05


--------------------------------------------------------------------------------------------------------


  energy-cutoff  :      600.00
  volume of cell :     1701.13
      direct lattice vectors                 reciprocal lattice vectors
     8.799792013  0.000516305 -0.003067910     0.113639060 -0.000018039  0.000027909
     0.004522296 32.903928989  2.854029665    -0.000002998  0.030689528 -0.003435860
    -0.001351607  0.664202506  5.932740843     0.000060207 -0.014763645  0.170209041

  length of vectors
     8.799792563 33.027474149  5.969805751     0.113639065  0.030881261  0.170848139


 
 k-points in units of 2pi/SCALE and weight: read from INCAR                         
   0.00000000  0.00000000  0.00000000       0.083
   0.03787969 -0.00000601  0.00000930       0.167
   0.00001505 -0.00369091  0.04255226       0.167
   0.03789474 -0.00369692  0.04256156       0.167
  -0.03786464 -0.00368490  0.04254296       0.167
   0.00003010 -0.00738182  0.08510452       0.083
   0.03790979 -0.00738784  0.08511382       0.167
 
 k-points in reciprocal lattice and weights: read from INCAR                         
   0.00000000  0.00000000  0.00000000       0.083
   0.33333333 -0.00000000  0.00000000       0.167
   0.00000000 -0.00000000  0.25000000       0.167
   0.33333333 -0.00000000  0.25000000       0.167
  -0.33333333 -0.00000000  0.25000000       0.167
   0.00000000 -0.00000000  0.50000000       0.083
   0.33333333 -0.00000000  0.50000000       0.167
 
 position of ions in fractional coordinates (direct lattice) 
   0.76331005  0.95101469  0.99456797
   0.89156450  0.95441273  0.31339343
   0.75045728  0.79951555  0.84305639
   0.73564336  0.45108070  0.49309237
   0.62139064  0.29487604  0.02391221
   0.10822861  0.79332980  0.02980861
   0.60736737  0.45443215  0.81174666
   0.74855980  0.29963786  0.34162966
   0.37669998  0.45300657  0.31449104
   0.23678858  0.79677505  0.34827866
   0.12216528  0.95294208  0.81683751
   0.39095517  0.29339510  0.52742345
   0.87809389  0.79480069  0.52585719
   0.24934408  0.94820916  0.49924793
   0.26256321  0.29684875  0.84582766
   0.24957829  0.44835770  0.99655915
   0.69888060  0.03020842  0.32488246
   0.84602002  0.04810549  0.95845583
   0.82331852  0.70210583  0.87999682
   0.65262653  0.54816006  0.45803470
   0.67628823  0.20223441  0.37945364
   0.30113566  0.71765161  0.01793934
   0.79999218  0.53013921  0.82441586
   0.82314754  0.22035721  0.01291716
   0.17515420  0.52751880  0.32606370
   0.15330600  0.69963447  0.38366280
   0.17666251  0.04559143  0.46137667
   0.34586566  0.19974681  0.88248664
   0.67645679  0.72035904  0.51325519
   0.32396631  0.02748967  0.82784284
   0.19854272  0.21760199  0.51597625
   0.32269353  0.54577007  0.96021475
   0.69795921  0.07429902  0.33718529
   0.83595405  0.09204241  0.97308251
   0.81202649  0.65822636  0.86525787
   0.66304834  0.59208846  0.47272168
   0.68735186  0.15833923  0.36496298
   0.30175015  0.67359983  0.00484391
   0.80098313  0.57421446  0.83707213
   0.82538207  0.17619645  0.00101853
   0.17348109  0.57163154  0.33906538
   0.16333979  0.65572576  0.36848610
   0.18741613  0.08947926  0.47604308
   0.33587108  0.15579686  0.86806063
   0.67411889  0.67621385  0.50101757
   0.32564844  0.07163444  0.84008054
   0.19768876  0.17350736  0.50390147
   0.31184832  0.58963027  0.97550110
   0.62885594  0.08668022  0.52163938
   0.90088495  0.12198980  0.80361567
   0.87619201  0.62826000  0.03534988
   0.59838018  0.62208844  0.30311372
   0.62299618  0.12842419  0.53503527
   0.37082435  0.66130601  0.82010063
   0.87005146  0.58652381  0.02185300
   0.89492004  0.16375515  0.81693076
   0.10394140  0.58398757  0.52339117
   0.09821381  0.62572154  0.53744417
   0.12293835  0.11938705  0.30593676
   0.40088538  0.12585517  0.03765454
   0.60467012  0.66384843  0.31654524
   0.39506517  0.08408602  0.02431511
   0.12861046  0.16112514  0.31934359
   0.37639777  0.61960172  0.80592104
   0.80035519  0.97731949  0.14351541
   0.78313541  0.77291390  0.69384423
   0.69858692  0.47735122  0.64218295
   0.71620266  0.27300736  0.19242723
   0.19955814  0.77044636  0.19962409
   0.28205850  0.47494170  0.14596439
   0.21689447  0.97482594  0.64844947
   0.29979601  0.27050926  0.69725367
   0.76407881  0.10394720  0.16171837
   0.74010864  0.64645887  0.67626106
   0.73502655  0.60391969  0.66156240
   0.75919808  0.14649683  0.17620081
   0.23531783  0.64390290  0.17971392
   0.23999576  0.60138144  0.16450285
   0.25921978  0.10132258  0.66491303
   0.26395258  0.14387083  0.67942357
   0.94371679  0.87416616  0.92038572
   0.05624572  0.87359379  0.42218963
   0.55528708  0.37425575  0.41831315
   0.44270947  0.37366927  0.91994726
   0.45315928  0.13562394  0.18307937
   0.91700437  0.56279695  0.15620273
   0.94187557  0.18746000  0.68251105
   0.58174233  0.06298868  0.65589006
   0.55802772  0.68759654  0.18192736
   0.54602480  0.61235619  0.15762573
   0.04583676  0.63543102  0.68290152
   0.07107128  0.10958031  0.16040134
   0.92823944  0.63801201  0.18091812
   0.08143270  0.18481113  0.18501159
   0.05669188  0.56024780  0.65736539
   0.41819587  0.68503663  0.68628385
   0.42832536  0.60986329  0.66027134
   0.57103155  0.13822336  0.68045701
   0.95322908  0.11220812  0.65833999
   0.44208389  0.06038847  0.15883970
   0.55427640  0.46417153  0.95608076
   0.44415402  0.28359399  0.38333987
   0.18267175  0.45381843  0.84043800
   0.30345899  0.79070908  0.50458147
   0.07056218  0.96329163  0.96046156
   0.19602489  0.29077985  0.00212136
   0.69680098  0.95712012  0.83812694
   0.92979082  0.78447179  0.38225823
   0.31622797  0.95363361  0.34323635
   0.80218414  0.45720649  0.33681720
   0.56989832  0.28453091  0.88012626
   0.94466763  0.96417324  0.45773663
   0.81550166  0.29422355  0.49772923
   0.42821692  0.46331179  0.45837866
   0.05492408  0.78351805  0.88577948
   0.68337216  0.79407286  0.99886880
   0.83110549  0.91403502  0.07234795
   0.91021865  0.91653158  0.26808806
   0.82415805  0.83567804  0.76704521
   0.66782391  0.41410572  0.57052157
   0.59646905  0.33245630  0.07006993
   0.08966996  0.83122594  0.07482578
   0.58869932  0.41657839  0.76614288
   0.67486938  0.33579825  0.26509884
   0.40145414  0.41543524  0.26818740
   0.16899456  0.83375759  0.27034794
   0.09738493  0.91536130  0.77062362
   0.40942325  0.33129814  0.57241062
   0.90281949  0.83236760  0.57229806
   0.17579097  0.91203775  0.57568191
   0.33020406  0.33382934  0.76787794
   0.32307326  0.41215945  0.07301510
   0.77078643  0.01988960  0.13209375
   0.74927068  0.73053111  0.70602667
   0.72818244  0.51990091  0.63124502
   0.75013925  0.23061052  0.20519411
   0.22914639  0.72788158  0.21085749
   0.24835297  0.51734499  0.13370843
   0.25061507  0.01722669  0.63574352
   0.27035293  0.22793537  0.70885819
   0.64012327  0.00344862  0.47209122
   0.91542127  0.03594266  0.80517977
   0.89336687  0.71402683  0.03356580
   0.58271520  0.53604477  0.30497849
   0.60644287  0.21421238  0.53294732
   0.36017121  0.74445465  0.87125442
   0.85869715  0.50333059  0.97158602
   0.88092084  0.24723580  0.86541124
   0.11674158  0.50061046  0.47273453
   0.08342830  0.71176679  0.53660844
   0.10702274  0.03362392  0.30757184
   0.41550630  0.21195087  0.03551436
   0.61884011  0.74728593  0.36570975
   0.38253245  0.00063758  0.97482400
   0.13982179  0.24435418  0.36850493
   0.39270685  0.53386273  0.80664975
 
 position of ions in cartesian coordinates  (Angst):
   6.71992623 31.95310859  8.61239638
   7.84947470 31.61254563  4.58046900
   6.60634416 26.86755038  7.28117384
   6.47488205 15.17022029  4.21053008
   5.46940956  9.71878372  0.98154353
   0.95593666 26.12352212  2.44070151
   5.34566441 15.49208099  6.11098208
   6.58806385 10.08656072  2.87967906
   3.31650503 15.11477616  3.15753237
   2.08682273 26.44847937  4.33954019
   1.07823453 31.89814698  7.56543544
   3.44093811 10.00436925  3.96522552
   7.72992713 26.50179463  5.38546529
   2.19778933 31.53153726  5.66736068
   2.31070086 10.32942665  5.86448592
   2.19691773 15.41477589  7.19118766
   6.14970142  1.21012423  2.01151506
   7.44372231  2.21990525  5.82096906
   7.24701746 23.68696153  7.22209805
   5.74483758 18.34118434  4.27986405
   5.95159747  6.90668981  2.82630832
   2.65315238 23.62562829  2.15370456
   7.04104795 17.99165514  6.40162438
   7.24450624  7.25962263  0.70301484
   1.54326543 17.57410381  3.43946839
   1.35170628 23.27563184  4.27247916
   1.55417595  1.80667608  2.86680555
   3.04325637  7.15878310  5.80458675
   5.95524303 24.04389729  5.09886081
   2.84984152  1.45454056  4.98883945
   1.74742130  7.50277554  3.68158680
   2.84080627 18.59592340  7.25335926
   6.14177611  2.66904948  2.21034326
   7.35532283  3.67531233  6.03317348
   7.14747141 22.23335919  7.00945707
   5.83672612 19.79636200  4.49233909
   6.04877619  5.45274705  2.61502688
   2.65837826 22.16745412  1.95028585
   7.04995033 19.45031073  6.60249976
   7.26398600  5.79865825  0.50638036
   1.52872429 19.03422114  3.64250817
   1.43982352 21.82078762  4.05709219
   1.64898422  3.26050499  3.07904168
   2.95512689  5.70307036  5.59359721
   5.93448689 22.58321767  4.90027364
   2.86482700  2.91520640  5.18742788
   1.73972358  6.04386841  3.48410546
   2.74554839 20.04924387  7.46926077
   5.53348842  3.19891863  3.34020991
   7.92706566  4.54817244  5.11304221
   7.71310084 20.69615439  2.00010627
   5.26802473 20.67079174  3.57191821
   5.48209444  4.58135393  3.53884078
   3.26505934 22.30447028  6.75169383
   7.65889483 19.31390198  1.80093531
   7.87474662  5.93125719  5.31125497
   0.91659622 19.56317699  4.77154314
   0.86636439 20.94571951  4.97404352
   1.08195829  4.13157032  2.15540055
   3.52822626  4.16634666  0.58135912
   5.32354553 22.05378404  3.77076890
   3.47683872  2.78311446  0.38302721
   1.13204233  5.51382523  2.35404414
   3.31393483 20.92282009  6.54852761
   7.04718499 32.25338775  3.63828312
   6.89398623 25.89316152  6.31991459
   6.14871038 16.13363099  5.17013635
   6.30340902  9.11119510  1.91859473
   1.75928448 25.48340626  3.38258251
   2.48400668 15.72454337  2.22060125
   1.91215820 32.50641729  6.62859940
   2.63842347  9.36408984  4.90774704
   6.72398615  3.52807955  1.25375744
   6.51481158 21.72059315  5.85482379
   6.46991767 20.31112150  5.64622801
   6.68120952  4.93774625  1.46113089
   2.07341702 21.30642317  2.90319216
   2.11441008 19.89719932  2.69157694
   2.28063968  3.77568185  4.23313910
   2.32246015  5.18532678  4.44064581
   8.30722071 29.37531114  7.95241090
   0.49833069 29.02511663  4.99783169
   4.88753791 12.59261607  3.54817699
   3.89619768 12.90644696  6.52291364
   3.98807325  4.58439612  1.47184697
   8.07178177 18.62245450  2.53013622
   8.28823440  6.62198232  4.58128798
   5.11860985  2.50851917  4.06921257
   4.91339148 22.74575243  3.04003682
   4.80746090 20.25390200  2.68116017
   0.40530454 21.36178562  5.86487611
   0.62569120  3.71219845  1.26414698
   8.17095479 21.11374744  2.89139780
   0.71717651  6.20393954  1.62483245
   0.50052183 18.87100693  5.49876839
   3.68220705 22.99644400  6.02537613
   3.77103964 20.50567328  5.65647259
   5.02466424  5.00034783  4.42971679
   8.38783530  4.12985121  4.22308142
   3.89030469  2.09274779  1.11334896
   4.87832395 15.90838441  6.99523822
   3.90922737  9.58620101  3.08227915
   1.60838975 15.49072470  6.28075171
   2.67326985 26.35273650  5.24932729
   0.62399065 32.33405676  8.44721593
   1.72629035  9.56930969  0.84187841
   6.13489930 32.05005819  7.70190142
   8.18499675 26.06658093  4.50389225
   2.78658905 31.60643426  4.75706074
   7.06066598 15.26801900  3.30066905
   5.01508383  9.94706127  6.03187227
   8.31662024 32.02960522  5.46451369
   7.17690280 10.01212472  3.79011940
   3.76969556 15.54945568  4.04043369
   0.48566658 26.36918744  7.49111533
   6.01577380 26.79192110  8.19024072
   7.31759119 30.12382626  3.03535494
   8.01351729 30.33602465  4.20351284
   7.25516185 28.00698984  6.93320194
   5.87781308 14.00499181  4.56457780
   5.25021236 10.98596715  1.36271694
   0.79273490 27.40034495  2.81599034
   5.18127994 14.21624362  5.73244816
   5.93987041 11.22550952  2.52907045
   3.53422915 13.84778978  2.77551923
   1.49052208 27.61355344  3.98295471
   0.86006505 30.63088372  7.18407979
   3.60356398 11.28141844  4.34024253
   7.94761443 27.76875234  5.76812812
   1.55027035 30.39208551  6.01781509
   2.90619885 11.49449383  5.50736662
   2.84474268 13.61032876  1.60850379
   6.78267167  0.74258095  0.83807880
   6.59577556 24.50667524  6.27133202
   6.40935195 17.52643303  5.22659172
   6.60183493  7.72466993  1.87323135
   2.01944724 24.09033409  3.32765548
   2.18761336 17.11162066  2.26901347
   2.20457911  0.98921747  3.82009812
   2.37912221  7.97093432  4.85517682
   5.63232914  0.42736767  2.80867349
   8.05459104  1.71792965  4.87669585
   7.86462628 23.51704375  2.23425019
   5.12978454 17.84084744  3.33745830
   5.33681953  7.40272687  3.77134629
   3.17162078 25.07435842  7.29251740
   7.55731929 17.20732707  7.19805408
   7.75186856  8.71029222  5.83717633
   1.02892660 16.78610265  4.23301040
   0.73664526 23.77638374  5.21470642
   0.94151421  1.31070447  1.92037937
   3.65727956  6.99781971  0.81433682
   5.44854941 24.83186818  4.30053885
   3.36489127  0.66865694  5.78402424
   1.23100962  8.28504681  2.88320940
   3.45706258 18.10216304  6.30809921
 


--------------------------------------------------------------------------------------------------------


 k-point  1 :   0.0000 0.0000 0.0000  plane waves:   56729
 k-point  2 :   0.3333-0.0000 0.0000  plane waves:   56707
 k-point  3 :   0.0000-0.0000 0.2500  plane waves:   56775
 k-point  4 :   0.3333-0.0000 0.2500  plane waves:   56793
 k-point  5 :  -0.3333-0.0000 0.2500  plane waves:   56788
 k-point  6 :   0.0000-0.0000 0.5000  plane waves:   56882
 k-point  7 :   0.3333-0.0000 0.5000  plane waves:   56760

 maximum and minimum number of plane-waves per node :     14245    14131

 maximum number of plane-waves:     56882
 maximum index in each direction: 
   IXMAX=   17   IYMAX=   65   IZMAX=   11
   IXMIN=  -17   IYMIN=  -65   IZMIN=  -12


 real space projection operators:
  total allocation   :      11722.39 KBytes
  max/ min on nodes  :       3000.15       2861.90


 parallel 3D FFT for wavefunctions:
    minimum data exchange during FFTs selected (reduces bandwidth)
 parallel 3D FFT for charge:
    minimum data exchange during FFTs selected (reduces bandwidth)


 total amount of memory used by VASP MPI-rank0    92174. kBytes
=======================================================================

   base      :      30000. kBytes
   nonlr-proj:       6477. kBytes
   fftplans  :       4128. kBytes
   grid      :      11219. kBytes
   one-center:       1213. kBytes
   wavefun   :      39137. kBytes
 
     INWAV:  cpu time    0.0003: real time    0.0002
 Broyden mixing: mesh for mixing (old mesh)
   NGX = 35   NGY =131   NGZ = 23
  (NGX  =108   NGY  =400   NGZ  = 72)
  gives a total of 105455 points

 initial charge density was supplied:
 charge density of overlapping atoms calculated
 number of electron     600.0000000 magnetization      -0.0000000
 keeping initial charge density in first step


--------------------------------------------------------------------------------------------------------


 Maximum index for non-local projection operator          672
 Maximum index for augmentation-charges          366 (set IRDMAX)


--------------------------------------------------------------------------------------------------------


 First call to EWALD:  gamma=   0.148
 Maximum number of real-space cells 4x 1x 5
 Maximum number of reciprocal cells 2x 7x 2

    FEWALD:  cpu time    0.0148: real time    0.0150


--------------------------------------- Iteration      1(   1)  ---------------------------------------


    POTLOK:  cpu time    0.2046: real time    0.2366
    SETDIJ:  cpu time    0.0626: real time    0.0631
     EDDAV:  cpu time   22.3891: real time   22.5056
       DOS:  cpu time    0.0066: real time    0.0066
    --------------------------------------------
      LOOP:  cpu time   22.6629: real time   22.8122

 eigenvalue-minimisations  : 10752
 total energy-change (2. order) : 0.4550355E+04  (-0.3144967E+05)
 number of electron     600.0000000 magnetization      -0.0000000
 augmentation part      600.0000000 magnetization      -0.0000000

 Free energy of the ion-electron system (eV)
  ---------------------------------------------------
  alpha Z        PSCENC =      1041.96137224
  Ewald energy   TEWEN  =     -8428.10716801
  -Hartree energ DENC   =    -17783.99566007
  -exchange      EXHF   =         0.00000000
  -V(xc)+E(xc)   XCENC  =      2073.12770671
  PAW double counting   =     21424.79691592   -21559.01982888
  entropy T*S    EENTRO =        -0.02830694
  eigenvalues    EBANDS =       -33.98432781
  atomic energy  EATOM  =     27815.60422923
  Solvation  Ediel_sol  =         0.00000000
  ---------------------------------------------------
  free energy    TOTEN  =      4550.35493240 eV

  energy without entropy =     4550.38323933  energy(sigma->0) =     4550.36908587


--------------------------------------------------------------------------------------------------------




--------------------------------------- Iteration      1(   2)  ---------------------------------------


     EDDAV:  cpu time   26.4270: real time   26.4610
       DOS:  cpu time    0.0052: real time    0.0052
    --------------------------------------------
      LOOP:  cpu time   26.4321: real time   26.4662

 eigenvalue-minimisations  : 12736
 total energy-change (2. order) :-0.5278234E+04  (-0.5076140E+04)
 number of electron     600.0000000 magnetization      -0.0000000
 augmentation part      600.0000000 magnetization      -0.0000000

 Free energy of the ion-electron system (eV)
  ---------------------------------------------------
  alpha Z        PSCENC =      1041.96137224
  Ewald energy   TEWEN  =     -8428.10716801
  -Hartree energ DENC   =    -17783.99566007
  -exchange      EXHF   =         0.00000000
  -V(xc)+E(xc)   XCENC  =      2073.12770671
  PAW double counting   =     21424.79691592   -21559.01982888
  entropy T*S    EENTRO =        -0.02353473
  eigenvalues    EBANDS =     -5312.22274860
  atomic energy  EATOM  =     27815.60422923
  Solvation  Ediel_sol  =         0.00000000
  ---------------------------------------------------
  free energy    TOTEN  =      -727.87871620 eV

  energy without entropy =     -727.85518146  energy(sigma->0) =     -727.86694883


--------------------------------------------------------------------------------------------------------




--------------------------------------- Iteration      1(   3)  ---------------------------------------


     EDDAV:  cpu time   26.9536: real time   26.9860
       DOS:  cpu time    0.0146: real time    0.0146
    --------------------------------------------
      LOOP:  cpu time   26.9681: real time   27.0006

 eigenvalue-minimisations  : 13024
 total energy-change (2. order) :-0.5435302E+03  (-0.5318026E+03)
 number of electron     600.0000000 magnetization      -0.0000000
 augmentation part      600.0000000 magnetization      -0.0000000

 Free energy of the ion-electron system (eV)
  ---------------------------------------------------
  alpha Z        PSCENC =      1041.96137224
  Ewald energy   TEWEN  =     -8428.10716801
  -Hartree energ DENC   =    -17783.99566007
  -exchange      EXHF   =         0.00000000
  -V(xc)+E(xc)   XCENC  =      2073.12770671
  PAW double counting   =     21424.79691592   -21559.01982888
  entropy T*S    EENTRO =        -0.04390501
  eigenvalues    EBANDS =     -5855.73262374
  atomic energy  EATOM  =     27815.60422923
  Solvation  Ediel_sol  =         0.00000000
  ---------------------------------------------------
  free energy    TOTEN  =     -1271.40896161 eV

  energy without entropy =    -1271.36505660  energy(sigma->0) =    -1271.38700911


--------------------------------------------------------------------------------------------------------




--------------------------------------- Iteration      1(   4)  ---------------------------------------


     EDDAV:  cpu time   30.9456: real time   30.9834
       DOS:  cpu time    0.0088: real time    0.0088
    --------------------------------------------
      LOOP:  cpu time   30.9545: real time   30.9923

 eigenvalue-minimisations  : 15232
 total energy-change (2. order) :-0.2367335E+02  (-0.2344205E+02)
 number of electron     600.0000000 magnetization      -0.0000000
 augmentation part      600.0000000 magnetization      -0.0000000

 Free energy of the ion-electron system (eV)
  ---------------------------------------------------
  alpha Z        PSCENC =      1041.96137224
  Ewald energy   TEWEN  =     -8428.10716801
  -Hartree energ DENC   =    -17783.99566007
  -exchange      EXHF   =         0.00000000
  -V(xc)+E(xc)   XCENC  =      2073.12770671
  PAW double counting   =     21424.79691592   -21559.01982888
  entropy T*S    EENTRO =        -0.04482844
  eigenvalues    EBANDS =     -5879.40505112
  atomic energy  EATOM  =     27815.60422923
  Solvation  Ediel_sol  =         0.00000000
  ---------------------------------------------------
  free energy    TOTEN  =     -1295.08231241 eV

  energy without entropy =    -1295.03748398  energy(sigma->0) =    -1295.05989819


--------------------------------------------------------------------------------------------------------




--------------------------------------- Iteration      1(   5)  ---------------------------------------


     EDDAV:  cpu time   29.1887: real time   29.2234
       DOS:  cpu time    0.0046: real time    0.0045
    --------------------------------------------
      LOOP:  cpu time   29.1933: real time   29.2279

 eigenvalue-minimisations  : 13984
 total energy-change (2. order) :-0.6131934E+00  (-0.6115859E+00)
 number of electron     600.0000000 magnetization      -0.0000000
 augmentation part      600.0000000 magnetization      -0.0000000

 Free energy of the ion-electron system (eV)
  ---------------------------------------------------
  alpha Z        PSCENC =      1041.96137224
  Ewald energy   TEWEN  =     -8428.10716801
  -Hartree energ DENC   =    -17783.99566007
  -exchange      EXHF   =         0.00000000
  -V(xc)+E(xc)   XCENC  =      2073.12770671
  PAW double counting   =     21424.79691592   -21559.01982888
  entropy T*S    EENTRO =        -0.04489839
  eigenvalues    EBANDS =     -5880.01817460
  atomic energy  EATOM  =     27815.60422923
  Solvation  Ediel_sol  =         0.00000000
  ---------------------------------------------------
  free energy    TOTEN  =     -1295.69550585 eV

  energy without entropy =    -1295.65060746  energy(sigma->0) =    -1295.67305666


--------------------------------------------------------------------------------------------------------




--------------------------------------- Iteration      1(   6)  ---------------------------------------


     EDDAV:  cpu time   33.6846: real time   33.7241
       DOS:  cpu time    0.0052: real time    0.0052
    --------------------------------------------
      LOOP:  cpu time   33.6898: real time   33.7294

 eigenvalue-minimisations  : 16448
 total energy-change (2. order) :-0.3488416E-01  (-0.3486800E-01)
 number of electron     600.0000000 magnetization      -0.0000000
 augmentation part      600.0000000 magnetization      -0.0000000

 Free energy of the ion-electron system (eV)
  ---------------------------------------------------
  alpha Z        PSCENC =      1041.96137224
  Ewald energy   TEWEN  =     -8428.10716801
  -Hartree energ DENC   =    -17783.99566007
  -exchange      EXHF   =         0.00000000
  -V(xc)+E(xc)   XCENC  =      2073.12770671
  PAW double counting   =     21424.79691592   -21559.01982888
  entropy T*S    EENTRO =        -0.04484076
  eigenvalues    EBANDS =     -5880.05311640
  atomic energy  EATOM  =     27815.60422923
  Solvation  Ediel_sol  =         0.00000000
  ---------------------------------------------------
  free energy    TOTEN  =     -1295.73039002 eV

  energy without entropy =    -1295.68554926  energy(sigma->0) =    -1295.70796964


--------------------------------------------------------------------------------------------------------




--------------------------------------- Iteration      1(   7)  ---------------------------------------


     EDDAV:  cpu time   29.3475: real time   29.3817
       DOS:  cpu time    0.0051: real time    0.0051
    --------------------------------------------
      LOOP:  cpu time   29.3526: real time   29.3867

 eigenvalue-minimisations  : 14112
 total energy-change (2. order) :-0.6294432E-03  (-0.6292167E-03)
 number of electron     600.0000000 magnetization      -0.0000000
 augmentation part      600.0000000 magnetization      -0.0000000

 Free energy of the ion-electron system (eV)
  ---------------------------------------------------
  alpha Z        PSCENC =      1041.96137224
  Ewald energy   TEWEN  =     -8428.10716801
  -Hartree energ DENC   =    -17783.99566007
  -exchange      EXHF   =         0.00000000
  -V(xc)+E(xc)   XCENC  =      2073.12770671
  PAW double counting   =     21424.79691592   -21559.01982888
  entropy T*S    EENTRO =        -0.04483805
  eigenvalues    EBANDS =     -5880.05374854
  atomic energy  EATOM  =     27815.60422923
  Solvation  Ediel_sol  =         0.00000000
  ---------------------------------------------------
  free energy    TOTEN  =     -1295.73101946 eV

  energy without entropy =    -1295.68618140  energy(sigma->0) =    -1295.70860043


--------------------------------------------------------------------------------------------------------




--------------------------------------- Iteration      1(   8)  ---------------------------------------


     EDDAV:  cpu time   33.8721: real time   33.9128
       DOS:  cpu time    0.0054: real time    0.0054
    CHARGE:  cpu time    0.9298: real time    0.9323
    MIXING:  cpu time    0.0170: real time    0.0195
    --------------------------------------------
      LOOP:  cpu time   34.8243: real time   34.8699

 eigenvalue-minimisations  : 16544
 total energy-change (2. order) :-0.1799818E-04  (-0.1799666E-04)
 number of electron     600.0000017 magnetization      -0.0000986
 augmentation part       31.8493700 magnetization       0.0007147

 Broyden mixing:
  rms(total) = 0.97282E+01    rms(broyden)= 0.97276E+01
  rms(prec ) = 0.10403E+02
  weight for this iteration     100.00

 Free energy of the ion-electron system (eV)
  ---------------------------------------------------
  alpha Z        PSCENC =      1041.96137224
  Ewald energy   TEWEN  =     -8428.10716801
  -Hartree energ DENC   =    -17783.99566007
  -exchange      EXHF   =         0.00000000
  -V(xc)+E(xc)   XCENC  =      2073.12770671
  PAW double counting   =     21424.79691592   -21559.01982888
  entropy T*S    EENTRO =        -0.04483795
  eigenvalues    EBANDS =     -5880.05376665
  atomic energy  EATOM  =     27815.60422923
  Solvation  Ediel_sol  =         0.00000000
  ---------------------------------------------------
  free energy    TOTEN  =     -1295.73103746 eV

  energy without entropy =    -1295.68619951  energy(sigma->0) =    -1295.70861848


--------------------------------------------------------------------------------------------------------




--------------------------------------- Iteration      1(   9)  ---------------------------------------


[...]
   -.249E+03 -.183E+03 -.706E+02   0.254E+03 0.204E+03 0.831E+02   -.448E+01 -.214E+02 -.125E+02   0.224E-01 -.382E-01 -.369E-02
   0.550E+02 0.113E+03 -.101E+03   -.425E+02 -.128E+03 0.114E+03   -.126E+02 0.152E+02 -.128E+02   -.195E-01 0.263E-01 -.351E-02
   -.252E+03 -.178E+03 -.703E+02   0.258E+03 0.199E+03 0.826E+02   -.547E+01 -.212E+02 -.124E+02   0.108E-02 0.984E-02 0.766E-03
   -.547E+02 0.112E+03 -.101E+03   0.421E+02 -.127E+03 0.114E+03   0.126E+02 0.152E+02 -.128E+02   0.777E-03 0.702E-02 -.566E-03
   0.540E+02 -.112E+03 0.101E+03   -.421E+02 0.127E+03 -.114E+03   -.119E+02 -.156E+02 0.129E+02   -.181E-01 -.437E-01 0.520E-02
   0.541E+02 -.113E+03 0.101E+03   -.415E+02 0.128E+03 -.113E+03   -.127E+02 -.151E+02 0.128E+02   0.974E-03 0.961E-02 -.243E-02
   -.249E+03 0.183E+03 0.705E+02   0.254E+03 -.204E+03 -.830E+02   -.450E+01 0.214E+02 0.125E+02   0.115E-02 0.621E-02 -.247E-02
   0.252E+03 -.177E+03 -.701E+02   -.258E+03 0.198E+03 0.825E+02   0.547E+01 -.212E+02 -.124E+02   -.214E-01 -.393E-01 -.335E-02
   0.250E+03 0.184E+03 0.708E+02   -.254E+03 -.205E+03 -.832E+02   0.451E+01 0.214E+02 0.125E+02   -.223E-01 0.219E-01 0.541E-02
   0.888E+02 0.145E+03 0.114E+02   -.928E+02 -.144E+03 -.138E+02   0.400E+01 -.113E+01 0.239E+01   -.364E-03 0.382E-02 0.274E-03
   0.950E+02 -.152E+03 -.106E+02   -.992E+02 0.151E+03 0.130E+02   0.429E+01 0.101E+01 -.241E+01   -.356E-03 0.996E-02 -.125E-02
   -.897E+02 0.145E+03 0.116E+02   0.937E+02 -.144E+03 -.140E+02   -.406E+01 -.113E+01 0.243E+01   0.186E-02 0.165E-01 -.173E-02
   -.946E+02 -.151E+03 -.106E+02   0.989E+02 0.150E+03 0.130E+02   -.424E+01 0.100E+01 -.239E+01   0.217E-02 -.307E-01 0.267E-02
   -.896E+02 -.145E+03 -.122E+02   0.936E+02 0.144E+03 0.147E+02   -.407E+01 0.115E+01 -.246E+01   0.392E-03 0.983E-02 -.138E-02
   0.943E+02 0.152E+03 0.109E+02   -.986E+02 -.151E+03 -.133E+02   0.425E+01 -.102E+01 0.241E+01   -.196E-02 0.166E-01 -.163E-02
   -.938E+02 0.151E+03 0.102E+02   0.980E+02 -.150E+03 -.126E+02   -.419E+01 -.101E+01 0.235E+01   0.411E-03 0.371E-02 0.217E-03
   0.895E+02 -.145E+03 -.118E+02   -.935E+02 0.144E+03 0.142E+02   0.403E+01 0.114E+01 -.243E+01   -.204E-02 -.307E-01 0.270E-02
   0.176E+03 0.366E+03 -.191E+03   -.199E+03 -.401E+03 0.226E+03   0.228E+02 0.342E+02 -.348E+02   0.325E-03 0.558E-02 -.158E-02
   -.754E+02 0.198E+03 0.161E+03   0.102E+03 -.220E+03 -.202E+03   -.264E+02 0.218E+02 0.411E+02   -.965E-03 0.147E-02 0.912E-03
   -.727E+02 -.200E+03 -.162E+03   0.993E+02 0.222E+03 0.203E+03   -.266E+02 -.215E+02 -.411E+02   0.467E-04 0.131E-01 -.165E-02
   0.758E+02 0.198E+03 0.160E+03   -.102E+03 -.220E+03 -.201E+03   0.266E+02 0.217E+02 0.410E+02   0.915E-03 0.213E-01 -.188E-02
   0.720E+02 -.200E+03 -.162E+03   -.986E+02 0.222E+03 0.203E+03   0.266E+02 -.215E+02 -.411E+02   0.235E-02 -.364E-01 0.267E-02
   -.176E+03 -.367E+03 0.191E+03   0.199E+03 0.402E+03 -.226E+03   -.229E+02 -.343E+02 0.347E+02   -.452E-04 0.123E-01 -.118E-02
   -.176E+03 0.367E+03 -.191E+03   0.199E+03 -.402E+03 0.225E+03   -.227E+02 0.343E+02 -.348E+02   0.210E-02 0.184E-01 -.262E-02
   -.173E+03 -.373E+03 0.192E+03   0.196E+03 0.407E+03 -.227E+03   -.225E+02 -.344E+02 0.350E+02   0.116E-02 -.370E-01 0.538E-02
   0.173E+03 0.374E+03 -.191E+03   -.196E+03 -.408E+03 0.226E+03   0.227E+02 0.344E+02 -.347E+02   -.181E-02 0.184E-01 -.256E-02
   0.751E+02 -.198E+03 -.160E+03   -.102E+03 0.220E+03 0.201E+03   0.266E+02 -.218E+02 -.410E+02   0.592E-03 0.130E-01 -.169E-02
   0.716E+02 0.200E+03 0.162E+03   -.981E+02 -.222E+03 -.203E+03   0.265E+02 0.215E+02 0.412E+02   0.110E-02 0.153E-02 0.752E-03
   -.749E+02 -.198E+03 -.161E+03   0.101E+03 0.220E+03 0.201E+03   -.265E+02 -.219E+02 -.410E+02   -.169E-02 -.361E-01 0.305E-02
   0.173E+03 -.374E+03 0.191E+03   -.195E+03 0.408E+03 -.226E+03   0.224E+02 -.344E+02 0.350E+02   -.457E-03 0.127E-01 -.134E-02
   -.173E+03 0.373E+03 -.191E+03   0.196E+03 -.407E+03 0.226E+03   -.228E+02 0.343E+02 -.348E+02   -.550E-03 0.559E-02 -.136E-02
   0.176E+03 -.366E+03 0.191E+03   -.199E+03 0.400E+03 -.226E+03   0.227E+02 -.342E+02 0.349E+02   -.170E-02 -.371E-01 0.521E-02
   -.720E+02 0.200E+03 0.162E+03   0.986E+02 -.222E+03 -.203E+03   -.266E+02 0.214E+02 0.411E+02   -.150E-02 0.216E-01 -.198E-02
 -----------------------------------------------------------------------------------------------
   0.658E-01 0.871E-01 -.504E+00   -.853E-13 -.881E-12 0.512E-12   -.592E-01 -.722E-01 0.494E+00   0.669E-02 -.197E-02 0.190E-03
 
 
 POSITION                                       TOTAL-FORCE (eV/Angst)
 -----------------------------------------------------------------------------------
      6.71993     31.95311      8.61240         0.001293      0.006427      0.004340
      7.84947     31.61255      4.58047        -0.003007     -0.002848     -0.000109
      6.60634     26.86755      7.28117         0.001478     -0.005342     -0.000522
      6.47488     15.17022      4.21053        -0.000602      0.007093      0.003173
      5.46941      9.71878      0.98154         0.001126      0.002353     -0.002029
      0.95594     26.12352      2.44070         0.002562     -0.005780     -0.001836
      5.34566     15.49208      6.11098         0.002049     -0.001484      0.002754
      6.58806     10.08656      2.87968         0.004127     -0.006613      0.002234
      3.31651     15.11478      3.15753        -0.002047      0.004895      0.002767
      2.08682     26.44848      4.33954         0.000501     -0.001196     -0.001807
      1.07823     31.89815      7.56544         0.004317      0.002785     -0.002028
      3.44094     10.00437      3.96523        -0.001767     -0.006255     -0.004159
      7.72993     26.50179      5.38547        -0.002557      0.002502     -0.000606
      2.19779     31.53154      5.66736        -0.003672      0.002041      0.003063
      2.31070     10.32943      5.86449        -0.000140     -0.005181     -0.001785
      2.19692     15.41478      7.19119         0.001029      0.002151      0.001306
      6.14970      1.21012      2.01152         0.001908     -0.000515     -0.002962
      7.44372      2.21991      5.82097        -0.005286     -0.000925      0.004918
      7.24702     23.68696      7.22210        -0.003777      0.002280      0.002406
      5.74484     18.34118      4.27986         0.005579      0.002827      0.001502
      5.95160      6.90669      2.82631        -0.000632      0.003478      0.002530
      2.65315     23.62563      2.15370         0.002974     -0.003195     -0.001999
      7.04105     17.99166      6.40162         0.000552      0.002722     -0.002177
      7.24451      7.25962      0.70301        -0.000403      0.004054      0.000300
      1.54327     17.57410      3.43947         0.001731      0.000231     -0.003062
      1.35171     23.27563      4.27248         0.005971     -0.000543     -0.006827
      1.55418      1.80668      2.86681         0.001396      0.000694      0.000746
      3.04326      7.15878      5.80459        -0.001364      0.001348     -0.001506
      5.95524     24.04390      5.09886         0.001690      0.001695      0.003899
      2.84984      1.45454      4.98884         0.000533     -0.002674     -0.004486
      1.74742      7.50278      3.68159        -0.002196      0.004289      0.002428
      2.84081     18.59592      7.25336        -0.004182      0.003300      0.000100
      6.14178      2.66905      2.21034        -0.001792      0.002765     -0.005867
      7.35532      3.67531      6.03317        -0.003515      0.002768      0.001166
      7.14747     22.23336      7.00946        -0.001551     -0.000430     -0.000415
      5.83673     19.79636      4.49234         0.003900     -0.000798      0.001489
      6.04878      5.45275      2.61503         0.001220     -0.006856      0.001516
      2.65838     22.16745      1.95029         0.002431      0.001843     -0.001482
      7.04995     19.45031      6.60250         0.002644     -0.004687      0.000092
      7.26399      5.79866      0.50638         0.000405     -0.000232      0.004024
      1.52872     19.03422      3.64251        -0.000572     -0.004969     -0.005311
      1.43982     21.82079      4.05709         0.002631      0.000044     -0.001113
      1.64898      3.26050      3.07904         0.003943      0.002839      0.001097
      2.95513      5.70307      5.59360        -0.002914     -0.002234      0.000143
      5.93449     22.58322      4.90027        -0.001126      0.003302      0.000725
      2.86483      2.91521      5.18743         0.001108     -0.000449     -0.001525
      1.73972      6.04387      3.48411        -0.000990      0.000468     -0.000057
      2.74555     20.04924      7.46926        -0.001141      0.000661     -0.000678
      5.53349      3.19892      3.34021        -0.001295      0.001168      0.005591
      7.92707      4.54817      5.11304         0.001805     -0.001038     -0.002049
      7.71310     20.69615      2.00011         0.002173     -0.007027      0.001788
      5.26802     20.67079      3.57192        -0.002059      0.004753     -0.001784
      5.48209      4.58135      3.53884         0.001730     -0.002421     -0.004727
      3.26506     22.30447      6.75169         0.002710      0.000654     -0.003983
      7.65889     19.31390      1.80094         0.003455      0.002276      0.003034
      7.87475      5.93126      5.31125        -0.001603      0.001950     -0.001056
      0.91660     19.56318      4.77154        -0.000477      0.001970      0.006309
      0.86636     20.94572      4.97404        -0.001955     -0.000447      0.003236
      1.08196      4.13157      2.15540        -0.002140     -0.001193     -0.004165
      3.52823      4.16635      0.58136        -0.001131     -0.000515      0.000308
      5.32355     22.05378      3.77077        -0.000868     -0.002281     -0.002021
      3.47684      2.78311      0.38303        -0.000446      0.001127      0.003251
      1.13204      5.51383      2.35404        -0.000289     -0.000878      0.000190
      3.31393     20.92282      6.54853         0.001843      0.001930     -0.002824
      7.04718     32.25339      3.63828         0.001124      0.001728     -0.001684
      6.89399     25.89316      6.31991         0.001051     -0.001813     -0.002067
      6.14871     16.13363      5.17014         0.001200     -0.000847     -0.002341
      6.30341      9.11120      1.91859        -0.003370     -0.002020     -0.000340
      1.75928     25.48341      3.38258        -0.000850     -0.002103     -0.001212
      2.48401     15.72454      2.22060         0.001687      0.004750      0.001662
      1.91216     32.50642      6.62860        -0.002281      0.000198      0.002139
      2.63842      9.36409      4.90775         0.000596      0.000767      0.000656
      6.72399      3.52808      1.25376        -0.001687     -0.003349      0.001702
      6.51481     21.72059      5.85482        -0.001891     -0.006800     -0.000813
      6.46992     20.31112      5.64623         0.000017      0.002923      0.000970
      6.68121      4.93775      1.46113        -0.000646     -0.001140     -0.001724
      2.07342     21.30642      2.90319         0.000612     -0.003747     -0.000180
      2.11441     19.89720      2.69158         0.000674      0.004532     -0.001505
      2.28064      3.77568      4.23314         0.003256     -0.000582      0.004317
      2.32246      5.18533      4.44065         0.000495      0.002175     -0.000909
      8.30722     29.37531      7.95241        -0.005704     -0.001264      0.000861
      0.49833     29.02512      4.99783        -0.001577     -0.000215      0.001640
      4.88754     12.59262      3.54818         0.001359      0.002753      0.000102
      3.89620     12.90645      6.52291        -0.000839     -0.000765      0.001844
      3.98807      4.58440      1.47185        -0.000005     -0.001296      0.001081
      8.07178     18.62245      2.53014        -0.000522     -0.001385      0.000186
      8.28823      6.62198      4.58129        -0.000227      0.000258     -0.002311
      5.11861      2.50852      4.06921        -0.001257     -0.001405      0.002281
      4.91339     22.74575      3.04004         0.000244     -0.000298      0.000409
      4.80746     20.25390      2.68116         0.000667      0.003038      0.000244
      0.40530     21.36179      5.86488         0.001104     -0.002857      0.001206
      0.62569      3.71220      1.26415        -0.001642      0.002665     -0.001017
      8.17095     21.11375      2.89140         0.000803     -0.003404      0.002357
      0.71718      6.20394      1.62483        -0.001031      0.001250     -0.002043
      0.50052     18.87101      5.49877         0.001678      0.000569     -0.000320
      3.68221     22.99644      6.02538        -0.000225     -0.000338     -0.000007
      3.77104     20.50567      5.65647        -0.001120      0.004803      0.002250
      5.02466      5.00035      4.42972        -0.001421     -0.002902      0.001751
      8.38784      4.12985      4.22308        -0.000692      0.002282     -0.001639
      3.89030      2.09275      1.11335         0.000076      0.000624     -0.000062
      4.87832     15.90838      6.99524         0.002639     -0.000291      0.004991
      3.90923      9.58620      3.08228        -0.003170      0.000570     -0.004053
      1.60839     15.49072      6.28075         0.001297     -0.005174      0.002173
      2.67327     26.35274      5.24933        -0.001305      0.005449     -0.003644
      0.62399     32.33406      8.44722         0.003158      0.000284      0.008462
      1.72629      9.56931      0.84188        -0.000972      0.005380     -0.002745
      6.13490     32.05006      7.70190        -0.001686     -0.005831      0.000142
      8.18500     26.06658      4.50389        -0.001691     -0.000565     -0.007833
      2.78659     31.60643      4.75706         0.000150     -0.005125      0.002453
      7.06067     15.26802      3.30067         0.002689     -0.006387     -0.001084
      5.01508      9.94706      6.03187         0.001972     -0.000234     -0.006234
      8.31662     32.02961      5.46451        -0.003474     -0.000994      0.004649
      7.17690     10.01212      3.79012        -0.002466      0.004576     -0.003508
      3.76970     15.54946      4.04043        -0.002306      0.000967      0.008354
      0.48567     26.36919      7.49112         0.002268     -0.000091     -0.007024
      6.01577     26.79192      8.19024        -0.000017      0.004865     -0.001766
      7.31759     30.12383      3.03535        -0.002637      0.003990      0.000012
      8.01352     30.33602      4.20351         0.004864      0.007111      0.001607
      7.25516     28.00699      6.93320        -0.000997     -0.000792     -0.000077
      5.87781     14.00499      4.56458         0.002607      0.003092     -0.001177
      5.25021     10.98597      1.36272        -0.006485     -0.005152     -0.003030
      0.79273     27.40034      2.81599         0.000576     -0.006019      0.005068
      5.18128     14.21624      5.73245        -0.005769      0.003539      0.001829
      5.93987     11.22551      2.52907         0.002678     -0.004188      0.001428
      3.53423     13.84779      2.77552         0.002823      0.001835     -0.001425
      1.49052     27.61355      3.98295         0.002915     -0.002703      0.002913
      0.86007     30.63088      7.18408         0.001043      0.008235     -0.003625
      3.60356     11.28142      4.34024         0.002561     -0.004676      0.002187
      7.94761     27.76875      5.76813         0.001514     -0.007721     -0.001496
      1.55027     30.39209      6.01782         0.003403      0.003443     -0.003027
      2.90620     11.49449      5.50737        -0.003556      0.000184      0.003511
      2.84474     13.61033      1.60850        -0.000525     -0.001534     -0.002357
      6.78267      0.74258      0.83808         0.001531     -0.002603     -0.001384
      6.59578     24.50668      6.27133         0.003894      0.002362     -0.003108
      6.40935     17.52643      5.22659        -0.001710     -0.003165     -0.000136
      6.60183      7.72467      1.87323        -0.003808      0.001139     -0.000308
      2.01945     24.09033      3.32766        -0.004003      0.006744      0.002832
      2.18761     17.11162      2.26901         0.003786     -0.003685      0.001330
      2.20458      0.98922      3.82010        -0.003106     -0.002394     -0.000041
      2.37912      7.97093      4.85518         0.002723      0.003968      0.001786
      5.63233      0.42737      2.80867        -0.003837     -0.001340      0.001887
      8.05459      1.71793      4.87670         0.001664      0.001143      0.000760
      7.86463     23.51704      2.23425         0.000482     -0.001304     -0.000525
      5.12978     17.84085      3.33746        -0.001213     -0.001701     -0.000810
      5.33682      7.40273      3.77135         0.001067     -0.001691     -0.004120
      3.17162     25.07436      7.29252         0.001553      0.001489     -0.001148
      7.55732     17.20733      7.19805         0.002350     -0.000042     -0.001860
      7.75187      8.71029      5.83718         0.001150      0.001204      0.001135
      1.02893     16.78610      4.23301        -0.002953     -0.001448      0.001621
      0.73665     23.77638      5.21471        -0.001512      0.000575      0.001081
      0.94151      1.31070      1.92038        -0.002298     -0.001375      0.002881
      3.65728      6.99782      0.81434         0.000998     -0.002509     -0.000218
      5.44855     24.83187      4.30054        -0.000522      0.001831      0.002214
      3.36489      0.66866      5.78402        -0.000229      0.000385     -0.002133
      1.23101      8.28505      2.88321        -0.003160      0.001424     -0.002698
      3.45706     18.10216      6.30810         0.000079     -0.000514      0.002333
 -----------------------------------------------------------------------------------
    total drift:                                0.013272      0.012906     -0.009228


--------------------------------------------------------------------------------------------------------



  FREE ENERGIE OF THE ION-ELECTRON SYSTEM (eV)
  ---------------------------------------------------
  free  energy   TOTEN  =     -1186.78960087 eV

  energy  without entropy=    -1186.75208693  energy(sigma->0) =    -1186.77084390
 


--------------------------------------------------------------------------------------------------------


    POTLOK:  cpu time    0.2389: real time    0.2390


--------------------------------------------------------------------------------------------------------




--------------------------------------------------------------------------------------------------------


  
 reached required accuracy - stopping structural energy minimisation
 writing wavefunctions
     LOOP+:  cpu time 2264.8677: real time 2276.0672
    4ORBIT:  cpu time    0.0000: real time    0.0000

 total amount of memory used by VASP MPI-rank0    92174. kBytes
=======================================================================

   base      :      30000. kBytes
   nonlr-proj:       6477. kBytes
   fftplans  :       4128. kBytes
   grid      :      11219. kBytes
   one-center:       1213. kBytes
   wavefun   :      39137. kBytes
 
  
  
 General timing and accounting informations for this job:
 ========================================================
  
                  Total CPU time used (sec):     2369.586
                            User time (sec):     2279.417
                          System time (sec):       90.169
                         Elapsed time (sec):     2387.539
  
                   Maximum memory used (kb):     1060156.
                   Average memory used (kb):           0.
  
                          Minor page faults:        61570
                          Major page faults:           10
                 Voluntary context switches:        25292
