       N       E                     dE             d eps       ncg     rms          rms(c)
DAV:   1     0.458116793737E+04    0.45812E+04   -0.31136E+05 10752   0.159E+03
DAV:   2    -0.707876540250E+03   -0.52890E+04   -0.50867E+04 12832   0.353E+02
DAV:   3    -0.127150493889E+04   -0.56363E+03   -0.55279E+03 13088   0.125E+02
DAV:   4    -0.129538659256E+04   -0.23882E+02   -0.23649E+02 15488   0.318E+01
DAV:   5    -0.129591803221E+04   -0.53144E+00   -0.52969E+00 13824   0.396E+00
DAV:   6    -0.129595067267E+04   -0.32640E-01   -0.32624E-01 16640   0.114E+00
DAV:   7    -0.129595119297E+04   -0.52031E-03   -0.52010E-03 13888   0.109E-01
DAV:   8    -0.129595121125E+04   -0.18276E-04   -0.18274E-04 16672   0.230E-02    0.964E+01
DAV:   9    -0.170471665033E+04   -0.40877E+03   -0.44988E+03 19168   0.937E+01    0.392E+02
DAV:  10    -0.162733676385E+04    0.77380E+02   -0.42273E+02 13696   0.337E+01    0.263E+02
DAV:  11    -0.134492279970E+04    0.28241E+03   -0.16846E+03 17568   0.952E+01    0.112E+02
DAV:  12    -0.118400265792E+04    0.16092E+03   -0.11642E+03 15584   0.788E+01    0.475E+01
DAV:  13    -0.117983334760E+04    0.41693E+01   -0.53632E+02 15168   0.469E+01    0.576E+01
DAV:  14    -0.122008713105E+04   -0.40254E+02   -0.80917E+02 14816   0.252E+01    0.765E+01
DAV:  15    -0.116509653868E+04    0.54991E+02   -0.18162E+02 15328   0.402E+01    0.384E+01
DAV:  16    -0.117815271768E+04   -0.13056E+02   -0.23414E+02 15712   0.228E+01    0.592E+01
DAV:  17    -0.116476688810E+04    0.13386E+02   -0.13835E+02 16032   0.243E+01    0.331E+01
DAV:  18    -0.116502002972E+04   -0.25314E+00   -0.55461E+01 15648   0.104E+01    0.329E+01
DAV:  19    -0.116308969057E+04    0.19303E+01   -0.21094E+01 16192   0.943E+00    0.190E+01
DAV:  20    -0.116557367497E+04   -0.24840E+01   -0.54288E+00 13920   0.424E+00    0.198E+01
DAV:  21    -0.116681246659E+04   -0.12388E+01   -0.84597E-01 14208   0.277E+00    0.168E+01
DAV:  22    -0.116848501532E+04   -0.16725E+01   -0.29499E+00 15104   0.509E+00    0.151E+01
DAV:  23    -0.116939630134E+04   -0.91129E+00   -0.69384E-01 16032   0.204E+00    0.145E+01
DAV:  24    -0.117127988495E+04   -0.18836E+01   -0.59249E+00 15360   0.373E+00    0.143E+01
DAV:  25    -0.117132625837E+04   -0.46373E-01   -0.68220E-01 13888   0.258E+00    0.118E+01
DAV:  26    -0.117127109521E+04    0.55163E-01   -0.35332E+00 14848   0.344E+00    0.131E+01
DAV:  27    -0.117147878618E+04   -0.20769E+00   -0.48885E-01 14112   0.129E+00    0.131E+01
DAV:  28    -0.117135095211E+04    0.12783E+00   -0.17711E-01 15680   0.111E+00    0.112E+01
DAV:  29    -0.117136983314E+04   -0.18881E-01   -0.52523E-02 14432   0.514E-01    0.109E+01
DAV:  30    -0.117132860473E+04    0.41228E-01   -0.34415E-02 13312   0.372E-01    0.106E+01
DAV:  31    -0.117131703699E+04    0.11568E-01   -0.44668E-02 14432   0.428E-01    0.109E+01
DAV:  32    -0.117135185567E+04   -0.34819E-01   -0.25922E-01 14272   0.115E+00    0.106E+01
DAV:  33    -0.117122773596E+04    0.12412E+00   -0.26870E-01 14432   0.996E-01    0.833E+00
DAV:  34    -0.117120079091E+04    0.26945E-01   -0.20537E-01 14144   0.104E+00    0.100E+01
DAV:  35    -0.117092051957E+04    0.28027E+00   -0.39359E-01 15168   0.162E+00    0.710E+00
DAV:  36    -0.117086885190E+04    0.51668E-01   -0.31039E-01 14816   0.114E+00    0.657E+00
DAV:  37    -0.117079882376E+04    0.70028E-01   -0.15242E-01 15520   0.922E-01    0.708E+00
DAV:  38    -0.117076198955E+04    0.36834E-01   -0.12338E-02 14752   0.247E-01    0.733E+00
DAV:  39    -0.117093775204E+04   -0.17576E+00   -0.19992E-01 14304   0.121E+00    0.554E+00
DAV:  40    -0.117108964994E+04   -0.15190E+00   -0.50681E-01 15200   0.160E+00    0.673E+00
DAV:  41    -0.117108733704E+04    0.23129E-02   -0.40910E-01 14624   0.120E+00    0.543E+00
DAV:  42    -0.117120358887E+04   -0.11625E+00   -0.27595E-01 15328   0.104E+00    0.845E+00
DAV:  43    -0.117125295764E+04   -0.49369E-01   -0.10992E-01 14720   0.554E-01    0.761E+00
DAV:  44    -0.117122475259E+04    0.28205E-01   -0.18166E-02 15136   0.504E-01    0.749E+00
DAV:  45    -0.117125383803E+04   -0.29085E-01   -0.10988E-01 15648   0.656E-01    0.740E+00
DAV:  46    -0.117126331731E+04   -0.94793E-02   -0.79544E-03 13152   0.263E-01    0.727E+00
DAV:  47    -0.117125929429E+04    0.40230E-02   -0.53272E-04 13984   0.579E-02    0.727E+00
DAV:  48    -0.117129164449E+04   -0.32350E-01   -0.16172E-02 14528   0.265E-01    0.710E+00
DAV:  49    -0.117132637519E+04   -0.34731E-01   -0.13725E-02 15232   0.319E-01    0.666E+00
DAV:  50    -0.117137033095E+04   -0.43956E-01   -0.41891E-02 14592   0.569E-01    0.659E+00
DAV:  51    -0.117154133042E+04   -0.17100E+00   -0.16794E-01 14080   0.100E+00    0.602E+00
DAV:  52    -0.117182004992E+04   -0.27872E+00   -0.52590E-01 14464   0.155E+00    0.382E+00
DAV:  53    -0.117191413416E+04   -0.94084E-01   -0.10901E-01 14560   0.127E+00    0.272E+00
DAV:  54    -0.117239364933E+04   -0.47952E+00   -0.59138E-01 14848   0.241E+00    0.536E+00
DAV:  55    -0.117239541477E+04   -0.17654E-02   -0.10088E-01 15488   0.108E+00    0.452E+00
DAV:  56    -0.117230895002E+04    0.86465E-01   -0.10748E-01 16000   0.122E+00    0.361E+00
DAV:  57    -0.117179776565E+04    0.51118E+00   -0.16565E-01 14656   0.132E+00    0.471E+00
DAV:  58    -0.117226705624E+04   -0.46929E+00   -0.11899E-01 14464   0.950E-01    0.394E+00
DAV:  59    -0.117232569781E+04   -0.58642E-01   -0.24706E-01 14624   0.101E+00    0.387E+00
DAV:  60    -0.117237770907E+04   -0.52011E-01   -0.26568E-02 14880   0.773E-01    0.232E+00
DAV:  61    -0.117238160957E+04   -0.39005E-02   -0.11469E-02 14656   0.497E-01    0.183E+00
DAV:  62    -0.117238797208E+04   -0.63625E-02   -0.89272E-03 14880   0.487E-01    0.138E+00
DAV:  63    -0.117238558778E+04    0.23843E-02   -0.60607E-03 15584   0.416E-01    0.115E+00
DAV:  64    -0.117238690303E+04   -0.13152E-02   -0.59553E-03 15520   0.294E-01    0.113E+00
DAV:  65    -0.117239056368E+04   -0.36607E-02   -0.28632E-03 14368   0.156E-01    0.957E-01
DAV:  66    -0.117239079144E+04   -0.22775E-03   -0.33963E-04 14816   0.416E-02    0.960E-01
DAV:  67    -0.117239609251E+04   -0.53011E-02   -0.43528E-03 13664   0.179E-01    0.779E-01
DAV:  68    -0.117239935138E+04   -0.32589E-02   -0.42205E-03 14944   0.164E-01    0.712E-01
DAV:  69    -0.117240052876E+04   -0.11774E-02   -0.59128E-04 14752   0.791E-02    0.602E-01
DAV:  70    -0.117240214432E+04   -0.16156E-02   -0.10927E-03 14496   0.965E-02    0.524E-01
DAV:  71    -0.117240484147E+04   -0.26971E-02   -0.17083E-03 14528   0.138E-01    0.343E-01
DAV:  72    -0.117240543446E+04   -0.59299E-03   -0.52596E-04 14976   0.811E-02    0.300E-01
DAV:  73    -0.117240594324E+04   -0.50877E-03   -0.26605E-04 14848   0.515E-02    0.254E-01
DAV:  74    -0.117240591900E+04    0.24235E-04   -0.34966E-04 14560   0.760E-02    0.240E-01
DAV:  75    -0.117240602304E+04   -0.10404E-03   -0.10687E-04 14880   0.410E-02    0.193E-01
DAV:  76    -0.117240616431E+04   -0.14127E-03   -0.35862E-04 14688   0.635E-02    0.102E-01
DAV:  77    -0.117240627178E+04   -0.10747E-03   -0.28172E-04 15008   0.515E-02    0.669E-02
DAV:  78    -0.117240634136E+04   -0.69572E-04   -0.62967E-05 14336   0.161E-02    0.554E-02
DAV:  79    -0.117240636024E+04   -0.18879E-04   -0.30643E-05 13568   0.165E-02    0.222E-02
DAV:  80    -0.117240637037E+04   -0.10135E-04   -0.20400E-05 12992   0.122E-02    0.290E-02
DAV:  81    -0.117240637604E+04   -0.56651E-05   -0.69324E-06 11168   0.664E-03    0.357E-02
DAV:  82    -0.117240637670E+04   -0.66486E-06   -0.35233E-06 10048   0.758E-03
   1 F= -.11872255E+04 E0= -.11872078E+04  d E =-.118723E+04  mag=     0.0323
