 vasp.5.4.4.18Apr17-6-g9f103f2a35 (build May 22 2020 17:00:04) complex          
  
 executed on           IFC15_impi date 2020.09.26  00:22:54
 running on  128 total cores
 distrk:  each k-point on  128 cores,    1 groups
 distr:  one band on NCORES_PER_BAND=   4 cores,   32 groups


--------------------------------------------------------------------------------------------------------


 INCAR:
 POTCAR:    PAW_PBE C 08Apr2002                   
 POTCAR:    PAW_PBE Fe 06Sep2000                  
 POTCAR:    PAW_PBE H 15Jun2001                   
 POTCAR:    PAW_PBE N 08Apr2002                   
 POTCAR:    PAW_PBE O 08Apr2002                   

 ----------------------------------------------------------------------------- 
|                                                                             |
|           W    W    AA    RRRRR   N    N  II  N    N   GGGG   !!!           |
|           W    W   A  A   R    R  NN   N  II  NN   N  G    G  !!!           |
|           W    W  A    A  R    R  N N  N  II  N N  N  G       !!!           |
|           W WW W  AAAAAA  RRRRR   N  N N  II  N  N N  G  GGG   !            |
|           WW  WW  A    A  R   R   N   NN  II  N   NN  G    G                |
|           W    W  A    A  R    R  N    N  II  N    N   GGGG   !!!           |
|                                                                             |
|      For optimal performance we recommend to set                            |
|        NCORE= 4 - approx SQRT( number of cores)                             |
|      NCORE specifies how many cores store one orbital (NPAR=cpu/NCORE).     |
|      This setting can  greatly improve the performance of VASP for DFT.     |
|      The default,   NCORE=1            might be grossly inefficient         |
|      on modern multi-core architectures or massively parallel machines.     |
|      Do your own testing !!!!                                               |
|      Unfortunately you need to use the default for GW and RPA calculations. |
|      (for HF NCORE is supported but not extensively tested yet)             |
|                                                                             |
 ----------------------------------------------------------------------------- 

 POTCAR:    PAW_PBE C 08Apr2002                   
   VRHFIN =C: s2p2                                                              
   LEXCH  = PE                                                                  
   EATOM  =   147.1560 eV,   10.8157 Ry                                         
                                                                                
   TITEL  = PAW_PBE C 08Apr2002                                                 
   LULTRA =        F    use ultrasoft PP ?                                      
   IUNSCR =        1    unscreen: 0-lin 1-nonlin 2-no                           
   RPACOR =    1.200    partial core radius                                     
   POMASS =   12.011; ZVAL   =    4.000    mass and valenz                      
   RCORE  =    1.500    outmost cutoff radius                                   
   RWIGS  =    1.630; RWIGS  =    0.863    wigner-seitz radius (au A)           
   ENMAX  =  400.000; ENMIN  =  300.000 eV                                      
   ICORE  =        2    local potential                                         
   LCOR   =        T    correct aug charges                                     
   LPAW   =        T    paw PP                                                  
   EAUG   =  644.873                                                            
   DEXC   =    0.000                                                            
   RMAX   =    1.529    core radius for proj-oper                               
   RAUG   =    1.300    factor for augmentation sphere                          
   RDEP   =    1.501    radius for radial grids                                 
   RDEPT  =    1.300    core radius for aug-charge                              
                                                                                
   Atomic configuration                                                         
    4 entries                                                                   
     n  l   j            E        occ.                                          
     1  0  0.50      -273.3789   2.0000                                         
     2  0  0.50       -13.7508   2.0000                                         
     2  1  0.50        -5.2854   2.0000                                         
     3  2  1.50        -5.4423   0.0000                                         
   Description                                                                  
     l       E           TYP  RCUT    TYP  RCUT                                 
     0    -13.7508458     23  1.200                                             
     0     -8.2022199     23  1.200                                             
     1     -5.2854383     23  1.500                                             
     1     34.0145650     23  1.500                                             
     2     -5.4423304      7  1.500                                             
  local pseudopotential read in
  partial core-charges read in
  partial kinetic energy density read in
  atomic valenz-charges read in
  non local Contribution for L=           0  read in
    real space projection operators read in
  non local Contribution for L=           0  read in
    real space projection operators read in
  non local Contribution for L=           1  read in
    real space projection operators read in
  non local Contribution for L=           1  read in
    real space projection operators read in
    PAW grid and wavefunctions read in
 
   number of l-projection  operators is LMAX  =           4
   number of lm-projection operators is LMMAX =           8
 
 POTCAR:    PAW_PBE Fe 06Sep2000                  
   VRHFIN =Fe:  d7 s1                                                           
   LEXCH  = PE                                                                  
   EATOM  =   594.3153 eV,   43.6809 Ry                                         
                                                                                
   TITEL  = PAW_PBE Fe 06Sep2000                                                
   LULTRA =        F    use ultrasoft PP ?                                      
   IUNSCR =        1    unscreen: 0-lin 1-nonlin 2-no                           
   RPACOR =    2.000    partial core radius                                     
   POMASS =   55.847; ZVAL   =    8.000    mass and valenz                      
   RCORE  =    2.300    outmost cutoff radius                                   
   RWIGS  =    2.460; RWIGS  =    1.302    wigner-seitz radius (au A)           
   ENMAX  =  267.882; ENMIN  =  200.911 eV                                      
   RCLOC  =    1.701    cutoff for local pot                                    
   LCOR   =        T    correct aug charges                                     
   LPAW   =        T    paw PP                                                  
   EAUG   =  511.368                                                            
   DEXC   =    0.000                                                            
   RMAX   =    2.356    core radius for proj-oper                               
   RAUG   =    1.300    factor for augmentation sphere                          
   RDEP   =    2.442    radius for radial grids                                 
   RDEPT  =    1.890    core radius for aug-charge                              
                                                                                
   Atomic configuration                                                         
    9 entries                                                                   
     n  l   j            E        occ.                                          
     1  0  0.50     -6993.8440   2.0000                                         
     2  0  0.50      -814.6047   2.0000                                         
     2  1  1.50      -693.3689   6.0000                                         
     3  0  0.50       -89.4732   2.0000                                         
     3  1  1.50       -55.6373   6.0000                                         
     3  2  2.50        -3.8151   7.0000                                         
     4  0  0.50        -4.2551   1.0000                                         
     4  1  1.50        -3.4015   0.0000                                         
     4  3  2.50        -1.3606   0.0000                                         
   Description                                                                  
     l       E           TYP  RCUT    TYP  RCUT                                 
     2     -3.8151135     23  2.300                                             
     2     -5.1756961     23  2.300                                             
     0     -4.2550963     23  2.300                                             
     0      7.2035603     23  2.300                                             
     1     -2.7211652     23  2.300                                             
     1     18.4316424     23  2.300                                             
  local pseudopotential read in
  partial core-charges read in
  partial kinetic energy density read in
  atomic valenz-charges read in
  non local Contribution for L=           2  read in
    real space projection operators read in
  non local Contribution for L=           2  read in
    real space projection operators read in
  non local Contribution for L=           0  read in
    real space projection operators read in
  non local Contribution for L=           0  read in
    real space projection operators read in
  non local Contribution for L=           1  read in
    real space projection operators read in
  non local Contribution for L=           1  read in
    real space projection operators read in
    PAW grid and wavefunctions read in
 
   number of l-projection  operators is LMAX  =           6
   number of lm-projection operators is LMMAX =          18
 
 POTCAR:    PAW_PBE H 15Jun2001                   
   VRHFIN =H: ultrasoft test                                                    
   LEXCH  = PE                                                                  
   EATOM  =    12.4884 eV,    0.9179 Ry                                         
                                                                                
   TITEL  = PAW_PBE H 15Jun2001                                                 
   LULTRA =        F    use ultrasoft PP ?                                      
   IUNSCR =        0    unscreen: 0-lin 1-nonlin 2-no                           
   RPACOR =    0.000    partial core radius                                     
   POMASS =    1.000; ZVAL   =    1.000    mass and valenz                      
   RCORE  =    1.100    outmost cutoff radius                                   
   RWIGS  =    0.700; RWIGS  =    0.370    wigner-seitz radius (au A)           
   ENMAX  =  250.000; ENMIN  =  200.000 eV                                      
   RCLOC  =    0.701    cutoff for local pot                                    
   LCOR   =        T    correct aug charges                                     
   LPAW   =        T    paw PP                                                  
   EAUG   =  400.000                                                            
   RMAX   =    1.123    core radius for proj-oper                               
   RAUG   =    1.200    factor for augmentation sphere                          
   RDEP   =    1.112    radius for radial grids                                 
   RDEPT  =    0.926    core radius for aug-charge                              
                                                                                
   Atomic configuration                                                         
    2 entries                                                                   
     n  l   j            E        occ.                                          
     1  0  0.50        -6.4927   1.0000                                         
     2  1  0.50        -3.4015   0.0000                                         
   Description                                                                  
     l       E           TYP  RCUT    TYP  RCUT                                 
     0     -6.4927494     23  1.100                                             
     0      6.8029130     23  1.100                                             
     1     -4.0817478     23  1.100                                             
  local pseudopotential read in
  atomic valenz-charges read in
  non local Contribution for L=           0  read in
    real space projection operators read in
  non local Contribution for L=           0  read in
    real space projection operators read in
  non local Contribution for L=           1  read in
    real space projection operators read in
    PAW grid and wavefunctions read in
 
   number of l-projection  operators is LMAX  =           3
   number of lm-projection operators is LMMAX =           5
 
 POTCAR:    PAW_PBE N 08Apr2002                   
   VRHFIN =N: s2p3                                                              
   LEXCH  = PE                                                                  
   EATOM  =   264.5486 eV,   19.4438 Ry                                         
                                                                                
   TITEL  = PAW_PBE N 08Apr2002                                                 
   LULTRA =        F    use ultrasoft PP ?                                      
   IUNSCR =        1    unscreen: 0-lin 1-nonlin 2-no                           
   RPACOR =    1.200    partial core radius                                     
   POMASS =   14.001; ZVAL   =    5.000    mass and valenz                      
   RCORE  =    1.500    outmost cutoff radius                                   
   RWIGS  =    1.400; RWIGS  =    0.741    wigner-seitz radius (au A)           
   ENMAX  =  400.000; ENMIN  =  300.000 eV                                      
   ICORE  =        2    local potential                                         
   LCOR   =        T    correct aug charges                                     
   LPAW   =        T    paw PP                                                  
   EAUG   =  627.112                                                            
   DEXC   =    0.000                                                            
   RMAX   =    1.529    core radius for proj-oper                               
   RAUG   =    1.300    factor for augmentation sphere                          
   RDEP   =    1.514    radius for radial grids                                 
   RDEPT  =    1.338    core radius for aug-charge                              
                                                                                
   Atomic configuration                                                         
    4 entries                                                                   
     n  l   j            E        occ.                                          
     1  0  0.50      -384.7179   2.0000                                         
     2  0  0.50       -18.5828   2.0000                                         
     2  1  0.50        -7.0898   3.0000                                         
     3  2  1.50        -6.8029   0.0000                                         
   Description                                                                  
     l       E           TYP  RCUT    TYP  RCUT                                 
     0    -18.5828119     23  1.200                                             
     0    -13.5018863     23  1.200                                             
     1     -7.0897853     23  1.500                                             
     1      9.5240782     23  1.500                                             
     2     -6.8029130      7  1.500                                             
  local pseudopotential read in
  partial core-charges read in
  partial kinetic energy density read in
  atomic valenz-charges read in
  non local Contribution for L=           0  read in
    real space projection operators read in
  non local Contribution for L=           0  read in
    real space projection operators read in
  non local Contribution for L=           1  read in
    real space projection operators read in
  non local Contribution for L=           1  read in
    real space projection operators read in
    PAW grid and wavefunctions read in
 
   number of l-projection  operators is LMAX  =           4
   number of lm-projection operators is LMMAX =           8
 
 POTCAR:    PAW_PBE O 08Apr2002                   
   VRHFIN =O: s2p4                                                              
   LEXCH  = PE                                                                  
   EATOM  =   432.3788 eV,   31.7789 Ry                                         
                                                                                
   TITEL  = PAW_PBE O 08Apr2002                                                 
   LULTRA =        F    use ultrasoft PP ?                                      
   IUNSCR =        1    unscreen: 0-lin 1-nonlin 2-no                           
   RPACOR =    1.200    partial core radius                                     
   POMASS =   16.000; ZVAL   =    6.000    mass and valenz                      
   RCORE  =    1.520    outmost cutoff radius                                   
   RWIGS  =    1.550; RWIGS  =    0.820    wigner-seitz radius (au A)           
   ENMAX  =  400.000; ENMIN  =  300.000 eV                                      
   ICORE  =        2    local potential                                         
   LCOR   =        T    correct aug charges                                     
   LPAW   =        T    paw PP                                                  
   EAUG   =  605.392                                                            
   DEXC   =    0.000                                                            
   RMAX   =    1.553    core radius for proj-oper                               
   RAUG   =    1.300    factor for augmentation sphere                          
   RDEP   =    1.550    radius for radial grids                                 
   RDEPT  =    1.329    core radius for aug-charge                              
                                                                                
   Atomic configuration                                                         
    4 entries                                                                   
     n  l   j            E        occ.                                          
     1  0  0.50      -514.6923   2.0000                                         
     2  0  0.50       -23.9615   2.0000                                         
     2  1  0.50        -9.0305   4.0000                                         
     3  2  1.50        -9.5241   0.0000                                         
   Description                                                                  
     l       E           TYP  RCUT    TYP  RCUT                                 
     0    -23.9615318     23  1.200                                             
     0     -9.5240782     23  1.200                                             
     1     -9.0304911     23  1.520                                             
     1      8.1634956     23  1.520                                             
     2     -9.5240782      7  1.500                                             
  local pseudopotential read in
  partial core-charges read in
  partial kinetic energy density read in
  kinetic energy density of atom read in
  atomic valenz-charges read in
  non local Contribution for L=           0  read in
    real space projection operators read in
  non local Contribution for L=           0  read in
    real space projection operators read in
  non local Contribution for L=           1  read in
    real space projection operators read in
  non local Contribution for L=           1  read in
    real space projection operators read in
    PAW grid and wavefunctions read in
 
   number of l-projection  operators is LMAX  =           4
   number of lm-projection operators is LMMAX =           8
 
 Optimization of the real space projectors (new method)

 maximal supplied QI-value         = 25.13
 optimisation between [QCUT,QGAM] = [ 12.32, 24.88] = [ 42.47,173.37] Ry 
 Optimized for a Real-space Cutoff    1.06 Angstroem

   l    n(q)    QCUT    max X(q) W(low)/X(q) W(high)/X(q)  e(spline) 
   0      8    12.315   115.676    0.34E-03    0.18E-03    0.23E-06
   0      8    12.315    87.132    0.34E-03    0.18E-03    0.22E-06
   1      7    12.315     4.429    0.45E-03    0.12E-03    0.18E-06
   1      7    12.315     2.733    0.35E-03    0.97E-04    0.15E-06
 Optimization of the real space projectors (new method)

 maximal supplied QI-value         = 16.25
 optimisation between [QCUT,QGAM] = [ 12.51, 25.03] = [ 43.85,175.40] Ry 
 Optimized for a Real-space Cutoff    1.35 Angstroem

   l    n(q)    QCUT    max X(q) W(low)/X(q) W(high)/X(q)  e(spline) 
   2      9    12.514    80.901    0.12E-03    0.34E-03    0.58E-06
   2      9    12.514    75.754    0.12E-03    0.34E-03    0.59E-06
   0     10    12.514    58.752    0.17E-03    0.81E-04    0.93E-07
   0     10    12.514    30.679    0.15E-03    0.74E-04    0.88E-07
   1     10    12.514    17.977    0.11E-03    0.79E-04    0.24E-06
   1     10    12.514    13.559    0.97E-04    0.61E-04    0.20E-06
 Optimization of the real space projectors (new method)

 maximal supplied QI-value         = 34.20
 optimisation between [QCUT,QGAM] = [ 12.31, 24.97] = [ 42.46,174.58] Ry 
 Optimized for a Real-space Cutoff    1.00 Angstroem

   l    n(q)    QCUT    max X(q) W(low)/X(q) W(high)/X(q)  e(spline) 
   0      7    12.313    19.460    0.14E-03    0.42E-03    0.16E-06
   0      7    12.313    12.209    0.12E-03    0.40E-03    0.16E-06
   1      7    12.313     4.655    0.33E-03    0.59E-03    0.89E-07
 Optimization of the real space projectors (new method)

 maximal supplied QI-value         = 25.13
 optimisation between [QCUT,QGAM] = [ 12.32, 24.88] = [ 42.47,173.37] Ry 
 Optimized for a Real-space Cutoff    1.20 Angstroem

   l    n(q)    QCUT    max X(q) W(low)/X(q) W(high)/X(q)  e(spline) 
   0      9    12.315    79.467    0.14E-03    0.22E-04    0.37E-06
   0      9    12.315    66.151    0.14E-03    0.23E-04    0.36E-06
   1      8    12.315    22.077    0.30E-03    0.54E-03    0.45E-06
   1      8    12.315    15.894    0.30E-03    0.55E-03    0.45E-06
 Optimization of the real space projectors (new method)

 maximal supplied QI-value         = 24.76
 optimisation between [QCUT,QGAM] = [ 12.38, 25.00] = [ 42.90,175.06] Ry 
 Optimized for a Real-space Cutoff    1.13 Angstroem

   l    n(q)    QCUT    max X(q) W(low)/X(q) W(high)/X(q)  e(spline) 
   0      8    12.378    20.381    0.16E-03    0.54E-05    0.27E-06
   0      8    12.378    15.268    0.17E-03    0.61E-05    0.29E-06
   1      8    12.378     5.964    0.38E-03    0.23E-03    0.28E-06
   1      8    12.378     5.382    0.33E-03    0.20E-03    0.25E-06
  PAW_PBE C 08Apr2002                   :
 energy of atom  1       EATOM= -147.1560
 kinetic energy error for atom=    0.0057 (will be added to EATOM!!)
  PAW_PBE Fe 06Sep2000                  :
 energy of atom  2       EATOM= -594.3153
 kinetic energy error for atom=    0.0017 (will be added to EATOM!!)
  PAW_PBE H 15Jun2001                   :
 energy of atom  3       EATOM=  -12.4884
 kinetic energy error for atom=    0.0004 (will be added to EATOM!!)
  PAW_PBE N 08Apr2002                   :
 energy of atom  4       EATOM= -264.5486
 kinetic energy error for atom=    0.0103 (will be added to EATOM!!)
  PAW_PBE O 08Apr2002                   :
 energy of atom  5       EATOM= -432.3788
 kinetic energy error for atom=    0.0168 (will be added to EATOM!!)
 
 
 POSCAR: FeH_7                                   
  positions in direct lattice
  velocities in cartesian coordinates
 exchange correlation table for  LEXCH =        8
   RHO(1)=    0.500       N(1)  =     2000
   RHO(2)=  100.500       N(2)  =     4000
 


--------------------------------------------------------------------------------------------------------


 ion  position               nearest neighbor table
   1  0.778  0.952  0.068- 107 1.09 117 1.35  65 1.40
   2  0.891  0.958  0.402- 112 1.08 118 1.34  65 1.40
   3  0.775  0.803  0.912- 116 1.09 119 1.35  66 1.40
   4  0.721  0.453  0.565- 110 1.09 120 1.35  67 1.40
   5  0.612  0.297  0.074- 111 1.08 121 1.34  68 1.40
   6  0.108  0.796  0.079- 115 1.08 122 1.34  69 1.40
   7  0.609  0.458  0.899- 101 1.08 123 1.34  67 1.40
   8  0.725  0.303  0.408- 113 1.09 124 1.35  68 1.40
   9  0.388  0.458  0.400- 114 1.08 125 1.34  70 1.40
  10  0.220  0.802  0.413- 104 1.09 126 1.35  69 1.40
  11  0.112  0.958  0.903- 105 1.08 127 1.34  71 1.40
  12  0.392  0.296  0.575- 102 1.08 128 1.34  72 1.40
  13  0.887  0.796  0.578- 108 1.08 129 1.34  66 1.40
  14  0.224  0.952  0.569- 109 1.09 130 1.35  71 1.40
  15  0.279  0.302  0.910- 106 1.09 131 1.35  72 1.40
  16  0.276  0.452  0.066- 103 1.09 132 1.35  70 1.40
  17  0.700  0.033  0.399- 141 1.23 133 1.41  33 1.48
  18  0.842  0.050  0.027- 142 1.23 133 1.42  34 1.48
  19  0.836  0.706  0.952- 143 1.23 134 1.42  35 1.48
  20  0.658  0.550  0.526- 144 1.23 135 1.42  36 1.48
  21  0.664  0.206  0.449- 145 1.23 136 1.42  37 1.48
  22  0.299  0.721  0.081- 146 1.23 137 1.41  38 1.48
  23  0.800  0.533  0.898- 147 1.23 135 1.41  39 1.48
  24  0.806  0.222  0.077- 148 1.23 136 1.41  40 1.48
  25  0.195  0.532  0.399- 149 1.23 138 1.41  41 1.48
  26  0.158  0.705  0.453- 150 1.23 137 1.42  42 1.48
  27  0.164  0.049  0.527- 151 1.23 139 1.42  43 1.48
  28  0.342  0.205  0.950- 152 1.23 140 1.42  44 1.48
  29  0.694  0.722  0.580- 153 1.23 134 1.41  45 1.48
  30  0.305  0.032  0.900- 154 1.23 139 1.41  46 1.48
  31  0.200  0.221  0.578- 155 1.23 140 1.41  47 1.48
  32  0.336  0.549  0.027- 156 1.23 138 1.42  48 1.48
  33  0.691  0.078  0.407-  49 1.39  73 1.41  17 1.48
  34  0.829  0.094  0.042-  50 1.39  73 1.42  18 1.48
  35  0.823  0.662  0.937-  51 1.39  74 1.42  19 1.48
  36  0.670  0.594  0.542-  52 1.39  75 1.42  20 1.48
  37  0.676  0.162  0.435-  53 1.39  76 1.42  21 1.48
  38  0.308  0.677  0.072-  54 1.39  77 1.41  22 1.48
  39  0.809  0.577  0.907-  55 1.39  75 1.41  23 1.48
  40  0.815  0.178  0.069-  56 1.39  76 1.41  24 1.48
  41  0.185  0.576  0.408-  57 1.39  78 1.41  25 1.48
  42  0.170  0.661  0.437-  58 1.39  77 1.42  26 1.48
  43  0.176  0.093  0.542-  59 1.39  79 1.42  27 1.48
  44  0.330  0.161  0.935-  60 1.39  80 1.42  28 1.48
  45  0.685  0.678  0.571-  61 1.39  74 1.41  29 1.48
  46  0.314  0.077  0.908-  62 1.39  79 1.41  30 1.48
  47  0.191  0.177  0.570-  63 1.39  80 1.41  31 1.48
  48  0.324  0.593  0.042-  64 1.39  78 1.42  32 1.48
  49  0.620  0.091  0.591-  88 1.09  33 1.39  53 1.40
  50  0.894  0.123  0.872-  99 1.09  34 1.39  56 1.40
  51  0.887  0.632  0.106-  93 1.09  35 1.39  55 1.40
  52  0.606  0.623  0.373-  90 1.09  36 1.39  61 1.40
  53  0.612  0.133  0.604-  98 1.09  37 1.39  49 1.40
  54  0.380  0.664  0.887-  96 1.09  38 1.39  64 1.40
  55  0.880  0.591  0.091-  86 1.09  39 1.39  51 1.40
  56  0.886  0.164  0.885-  87 1.09  40 1.39  50 1.40
  57  0.114  0.590  0.592-  95 1.09  41 1.39  58 1.40
  58  0.106  0.631  0.606-  91 1.09  42 1.39  57 1.40
  59  0.112  0.122  0.372-  92 1.09  43 1.39  63 1.40
  60  0.394  0.132  0.104-  85 1.09  44 1.39  62 1.40
  61  0.614  0.665  0.387-  89 1.09  45 1.39  52 1.40
  62  0.386  0.090  0.091- 100 1.09  46 1.39  60 1.40
  63  0.120  0.164  0.386-  94 1.09  47 1.39  59 1.40
  64  0.387  0.622  0.873-  97 1.09  48 1.39  54 1.40
  65  0.808  0.980  0.224-   2 1.40   1 1.40 133 1.42
  66  0.803  0.775  0.756-  13 1.40   3 1.40 134 1.42
  67  0.692  0.480  0.721-   7 1.40   4 1.40 135 1.42
  68  0.697  0.276  0.252-   5 1.40   8 1.40 136 1.42
  69  0.191  0.775  0.257-   6 1.40  10 1.40 137 1.42
  70  0.304  0.479  0.223-   9 1.40  16 1.40 138 1.42
  71  0.196  0.979  0.725-  11 1.40  14 1.40 139 1.42
  72  0.308  0.275  0.753-  12 1.40  15 1.40 140 1.42
  73  0.756  0.106  0.231-  33 1.41  34 1.42  76 1.43
  74  0.751  0.649  0.747-  45 1.41  35 1.42  75 1.43
  75  0.743  0.606  0.732-  39 1.41  36 1.42  74 1.43
  76  0.749  0.149  0.245-  40 1.41  37 1.42  73 1.43
  77  0.243  0.648  0.247-  38 1.41  42 1.42  78 1.43
  78  0.251  0.605  0.232-  41 1.41  48 1.42  77 1.43
  79  0.249  0.105  0.732-  46 1.41  43 1.42  80 1.43
  80  0.257  0.148  0.746-  47 1.41  44 1.42  79 1.43
  81  0.952  0.877  0.990- 117 2.01 119 2.01 127 2.01 122 2.01  82 2.99  82 2.99
  82  0.047  0.877  0.490- 130 2.01 126 2.01 129 2.01 118 2.01  81 2.99  81 2.99
  83  0.548  0.377  0.487- 124 2.01 120 2.01 125 2.01 128 2.01  84 2.99  84 2.99
  84  0.453  0.377  0.987- 131 2.01 132 2.01 123 2.01 121 2.01  83 2.99  83 2.99
  85  0.448  0.142  0.249-  60 1.09
  86  0.928  0.568  0.225-  55 1.09
  87  0.934  0.187  0.751-  56 1.09
  88  0.572  0.068  0.725-  49 1.09
  89  0.566  0.688  0.254-  61 1.09
  90  0.552  0.612  0.228-  52 1.09
  91  0.052  0.642  0.751-  58 1.09
  92  0.058  0.111  0.227-  59 1.09
  93  0.941  0.643  0.251-  51 1.09
  94  0.072  0.187  0.251-  63 1.09
  95  0.066  0.567  0.726-  57 1.09
  96  0.428  0.687  0.754-  54 1.09
  97  0.442  0.612  0.728-  64 1.09
  98  0.558  0.143  0.750-  53 1.09
  99  0.948  0.112  0.727-  50 1.09
 100  0.434  0.067  0.226-  62 1.09
 101  0.563  0.469  0.050-   7 1.08
 102  0.438  0.285  0.424-  12 1.08
 103  0.216  0.456  0.903-  16 1.09
 104  0.280  0.797  0.577-  10 1.09
 105  0.066  0.969  0.054-  11 1.08
 106  0.220  0.297  0.073-  15 1.09
 107  0.719  0.957  0.904-   1 1.09
 108  0.933  0.786  0.427-  13 1.08
 109  0.283  0.956  0.405-  14 1.09
 110  0.781  0.457  0.401-   4 1.09
 111  0.567  0.286  0.923-   5 1.08
 112  0.937  0.969  0.553-   2 1.08
 113  0.784  0.298  0.572-   8 1.09
 114  0.434  0.469  0.551-   9 1.08
 115  0.062  0.785  0.928-   6 1.08
 116  0.716  0.798  0.076-   3 1.09
 117  0.843  0.916  0.149-   1 1.35 118 1.38  81 2.01
 118  0.912  0.920  0.354-   2 1.34 117 1.38  82 2.01
 119  0.841  0.839  0.832-   3 1.35 129 1.38  81 2.01
 120  0.657  0.417  0.645-   4 1.35 123 1.37  83 2.01
 121  0.590  0.334  0.123-   5 1.34 124 1.38  84 2.01
 122  0.087  0.834  0.127-   6 1.34 126 1.38  81 2.01
 123  0.588  0.421  0.850-   7 1.34 120 1.37  84 2.01
 124  0.659  0.339  0.328-   8 1.35 121 1.38  83 2.01
 125  0.411  0.420  0.351-   9 1.34 132 1.38  83 2.01
 126  0.156  0.838  0.332-  10 1.35 122 1.38  82 2.01
 127  0.089  0.920  0.854-  11 1.34 130 1.38  81 2.01
 128  0.413  0.334  0.624-  12 1.34 131 1.38  83 2.01
 129  0.910  0.834  0.627-  13 1.34 119 1.38  82 2.01
 130  0.158  0.916  0.650-  14 1.35 127 1.38  82 2.01
 131  0.343  0.338  0.829-  15 1.35 128 1.38  84 2.01
 132  0.342  0.416  0.146-  16 1.35 125 1.38  84 2.01
 133  0.775  0.022  0.208-  17 1.41  18 1.42  65 1.42
 134  0.770  0.733  0.771-  29 1.41  19 1.42  66 1.42
 135  0.725  0.522  0.706-  23 1.41  20 1.42  67 1.42
 136  0.730  0.233  0.268-  24 1.41  21 1.42  68 1.42
 137  0.224  0.732  0.272-  22 1.41  26 1.42  69 1.42
 138  0.270  0.521  0.208-  25 1.41  32 1.42  70 1.42
 139  0.229  0.021  0.709-  30 1.41  27 1.42  71 1.42
 140  0.276  0.233  0.769-  31 1.41  28 1.42  72 1.42
 141  0.646  0.007  0.549-  17 1.23
 142  0.906  0.037  0.869-  18 1.23
 143  0.900  0.718  0.111-  19 1.23
 144  0.593  0.537  0.367-  20 1.23
 145  0.600  0.218  0.608-  21 1.23
 146  0.353  0.748  0.931-  22 1.23
 147  0.854  0.507  0.048-  23 1.23
 148  0.859  0.248  0.926-  24 1.23
 149  0.141  0.506  0.549-  25 1.23
 150  0.093  0.717  0.612-  26 1.23
 151  0.099  0.036  0.369-  27 1.23
 152  0.407  0.217  0.108-  28 1.23
 153  0.641  0.749  0.430-  29 1.23
 154  0.358  0.006  0.051-  30 1.23
 155  0.146  0.248  0.428-  31 1.23
 156  0.401  0.537  0.868-  32 1.23
 

IMPORTANT INFORMATION: All symmetrisations will be switched off!
NOSYMM: (Re-)initialisation of all symmetry stuff for point group C_1.

 
 

Automatic generation of k-mesh.
 generate k-points for:    3    1    4
Space group operators:
 irot       det(A)        alpha          n_x          n_y          n_z        tau_x        tau_y        tau_z
    1     1.000000     0.000001     1.000000     0.000000     0.000000     0.000000     0.000000     0.000000
 
 Subroutine IBZKPT returns following result:
 ===========================================
 
 Found      7 irreducible k-points:
 
 Following reciprocal coordinates:
            Coordinates               Weight
  0.000000  0.000000  0.000000      1.000000
  0.333333  0.000000 -0.000000      2.000000
 -0.000000 -0.000000  0.250000      2.000000
  0.333333 -0.000000  0.250000      2.000000
 -0.333333 -0.000000  0.250000      2.000000
 -0.000000 -0.000000  0.500000      1.000000
  0.333333 -0.000000  0.500000      2.000000
 
 Following cartesian coordinates:
            Coordinates               Weight
  0.000000  0.000000  0.000000      1.000000
  0.033953  0.000005 -0.000008      2.000000
 -0.000003 -0.003345  0.044446      2.000000
  0.033949 -0.003340  0.044438      2.000000
 -0.033956 -0.003350  0.044455      2.000000
 -0.000006 -0.006690  0.088892      1.000000
  0.033946 -0.006685  0.088884      2.000000
 


--------------------------------------------------------------------------------------------------------




 Dimension of arrays:
   k-points           NKPTS =      7   k-points in BZ     NKDIM =      7   number of bands    NBANDS=    384
   number of dos      NEDOS =    301   number of ions     NIONS =    156
   non local maximal  LDIM  =      6   non local SUM 2l+1 LMDIM =     18
   total plane-waves  NPLWV = 432000
   max r-space proj   IRMAX =   2474   max aug-charges    IRDMAX=   8655
   dimension x,y,z NGX =    60 NGY =  200 NGZ =   36
   dimension x,y,z NGXF=   120 NGYF=  400 NGZF=   72
   support grid    NGXF=   120 NGYF=  400 NGZF=   72
   ions per type =              80   4  32  24  16
   NGX,Y,Z   is equivalent  to a cutoff of  10.16, 10.06, 10.52 a.u.
   NGXF,Y,Z  is equivalent  to a cutoff of  20.32, 20.12, 21.04 a.u.

 SYSTEM =  flex_MOF                                
 POSCAR =  FeH_7                                   

 Startparameter for this run:
   NWRITE =      2    write-flag & timer
   PREC   = normal    normal or accurate (medium, high low for compatibility)
   ISTART =      0    job   : 0-new  1-cont  2-samecut
   ICHARG =      2    charge: 1-file 2-atom 10-const
   ISPIN  =      2    spin polarized calculation?
   LNONCOLLINEAR =      F non collinear calculations
   LSORBIT =      F    spin-orbit coupling
   INIWAV =      1    electr: 0-lowe 1-rand  2-diag
   LASPH  =      F    aspherical Exc in radial PAW
   METAGGA=      F    non-selfconsistent MetaGGA calc.

 Electronic Relaxation 1
   ENCUT  =  600.0 eV  44.10 Ry    6.64 a.u.  19.61 66.00 11.36*2*pi/ulx,y,z
   ENINI  =  600.0     initial cutoff
   ENAUG  =  644.9 eV  augmentation charge cutoff
   NELM   =    120;   NELMIN=  3; NELMDL= -8     # of ELM steps 
   EDIFF  = 0.1E-05   stopping-criterion for ELM
   LREAL  =      T    real-space projection
   NLSPLINE    = F    spline interpolate recip. space projectors
   LCOMPAT=      F    compatible to vasp.4.4
   GGA_COMPAT  = T    GGA compatible to vasp.4.4-vasp.4.6
   LMAXPAW     = -100 max onsite density
   LMAXMIX     =    2 max onsite mixed and CHGCAR
   VOSKOWN=      0    Vosko Wilk Nusair interpolation
   ROPT   =   -0.00050  -0.00050  -0.00050  -0.00050
   ROPT   =   -0.00050
 Ionic relaxation
   EDIFFG = -.1E-01   stopping-criterion for IOM
   NSW    =    500    number of steps for IOM
   NBLOCK =      1;   KBLOCK =    500    inner block; outer block 
   IBRION =      2    ionic relax: 0-MD 1-quasi-New 2-CG
   NFREE  =      1    steps in history (QN), initial steepest desc. (CG)
   ISIF   =      3    stress and relaxation
   IWAVPR =     11    prediction:  0-non 1-charg 2-wave 3-comb
   ISYM   =      0    0-nonsym 1-usesym 2-fastsym
   LCORR  =      T    Harris-Foulkes like correction to forces

   POTIM  = 0.5000    time-step for ionic-motion
   TEIN   =    0.0    initial temperature
   TEBEG  =    0.0;   TEEND  =   0.0 temperature during run
   SMASS  =  -3.00    Nose mass-parameter (am)
   estimated Nose-frequenzy (Omega)   =  0.10E-29 period in steps =****** mass=  -0.220E-26a.u.
   SCALEE = 1.0000    scale energy and forces
   NPACO  =    256;   APACO  = 16.0  distance and # of slots for P.C.
   PSTRESS=    0.0 pullay stress

  Mass of Ions in am
   POMASS =  12.01 55.85  1.00 14.00 16.00
  Ionic Valenz
   ZVAL   =   4.00  8.00  1.00  5.00  6.00
  Atomic Wigner-Seitz radii
   RWIGS  =  -1.00 -1.00 -1.00 -1.00 -1.00
  virtual crystal weights 
   VCA    =   1.00  1.00  1.00  1.00  1.00
   NELECT =     600.0000    total number of electrons
   NUPDOWN=      -1.0000    fix difference up-down

 DOS related values:
   EMIN   =  10.00;   EMAX   =-10.00  energy-range for DOS
   EFERMI =   0.00
   ISMEAR =     0;   SIGMA  =   0.05  broadening in eV -4-tet -1-fermi 0-gaus

 Electronic relaxation 2 (details)
   IALGO  =     38    algorithm
   LDIAG  =      T    sub-space diagonalisation (order eigenvalues)
   LSUBROT=      F    optimize rotation matrix (better conditioning)
   TURBO    =      0    0=normal 1=particle mesh
   IRESTART =      0    0=no restart 2=restart with 2 vectors
   NREBOOT  =      0    no. of reboots
   NMIN     =      0    reboot dimension
   EREF     =   0.00    reference energy to select bands
   IMIX   =      4    mixing-type and parameters
     AMIX     =   0.40;   BMIX     =  1.00
     AMIX_MAG =   1.60;   BMIX_MAG =  1.00
     AMIN     =   0.10
     WC   =   100.;   INIMIX=   1;  MIXPRE=   1;  MAXMIX= -45

 Intra band minimization:
   WEIMIN = 0.0010     energy-eigenvalue tresh-hold
   EBREAK =  0.65E-09  absolut break condition
   DEPER  =   0.30     relativ break condition  

   TIME   =   0.40     timestep for ELM

  volume/ion in A,a.u.               =      11.67        78.72
  Fermi-wavevector in a.u.,A,eV,Ry     =   1.130973  2.137229 17.403210  1.279100
  Thomas-Fermi vector in A             =   2.267671
 
 Write flags
   LWAVE        =      T    write WAVECAR
   LDOWNSAMPLE  =      F    k-point downsampling of WAVECAR
   LCHARG       =      T    write CHGCAR
   LVTOT        =      F    write LOCPOT, total local potential
   LVHAR        =      F    write LOCPOT, Hartree potential only
   LELF         =      F    write electronic localiz. function (ELF)
   LORBIT       =      0    0 simple, 1 ext, 2 COOP (PROOUT), +10 PAW based schemes


 Dipole corrections
   LMONO  =      F    monopole corrections only (constant potential shift)
   LDIPOL =      F    correct potential (dipole corrections)
   IDIPOL =      0    1-x, 2-y, 3-z, 4-all directions 
   EPSILON=  1.0000000 bulk dielectric constant

 Exchange correlation treatment:
   GGA     =    PE    GGA type
   LEXCH   =     8    internal setting for exchange type
   VOSKOWN=      0    Vosko Wilk Nusair interpolation
   LHFCALC =     F    Hartree Fock is set to
   LHFONE  =     F    Hartree Fock one center treatment
   AEXX    =    0.0000 exact exchange contribution

 Linear response parameters
   LEPSILON=     F    determine dielectric tensor
   LRPA    =     F    only Hartree local field effects (RPA)
   LNABLA  =     F    use nabla operator in PAW spheres
   LVEL    =     F    velocity operator in full k-point grid
   LINTERFAST=   F  fast interpolation
   KINTER  =     0    interpolate to denser k-point grid
   CSHIFT  =0.1000    complex shift for real part using Kramers Kronig
   OMEGAMAX=  -1.0    maximum frequency
   DEG_THRESHOLD= 0.2000000E-02 threshold for treating states as degnerate
   RTIME   =   -0.100 relaxation time in fs
  (WPLASMAI=    0.000 imaginary part of plasma frequency in eV, 0.658/RTIME)
   DFIELD  = 0.0000000 0.0000000 0.0000000 field for delta impulse in time
 
 Orbital magnetization related:
   ORBITALMAG=     F  switch on orbital magnetization
   LCHIMAG   =     F  perturbation theory with respect to B field
   DQ        =  0.001000  dq finite difference perturbation B field
   LLRAUG    =     F  two centre corrections for induced B field



--------------------------------------------------------------------------------------------------------


 conjugate gradient relaxation of ions
 charge density and potential will be updated during run
 spin polarized calculation
 Variant of blocked Davidson
 Davidson routine will perform the subspace rotation
 perform sub-space diagonalisation
    after iterative eigenvector-optimisation
 modified Broyden-mixing scheme, WC =      100.0
 initial mixing is a Kerker type mixing with AMIX =  0.4000 and BMIX =      1.0000
 Hartree-type preconditioning will be used
 using additional bands           84
 real space projection scheme for non local part
 use partial core corrections
 calculate Harris-corrections to forces 
   (improved forces if not selfconsistent)
 use gradient corrections 
 use of overlap-Matrix (Vanderbilt PP)
 Gauss-broadening in eV      SIGMA  =   0.05


--------------------------------------------------------------------------------------------------------


  energy-cutoff  :      600.00
  volume of cell :     1819.78
      direct lattice vectors                 reciprocal lattice vectors
     9.817590828 -0.000117884  0.000698097     0.101857985  0.000013582 -0.000025152
    -0.003781822 32.954042772  2.480093434     0.000000571  0.030561511 -0.002873014
     0.001327829  0.532539540  5.664857434    -0.000012802 -0.013379933  0.177784767

  length of vectors
     9.817590853 33.047236083  5.689833906     0.101857989  0.030696257  0.178287538


 
 k-points in units of 2pi/SCALE and weight: read from INCAR                         
   0.00000000  0.00000000  0.00000000       0.083
   0.03395266  0.00000453 -0.00000838       0.167
  -0.00000320 -0.00334498  0.04444619       0.167
   0.03394946 -0.00334046  0.04443781       0.167
  -0.03395586 -0.00334951  0.04445458       0.167
  -0.00000640 -0.00668997  0.08889238       0.083
   0.03394626 -0.00668544  0.08888400       0.167
 
 k-points in reciprocal lattice and weights: read from INCAR                         
   0.00000000  0.00000000  0.00000000       0.083
   0.33333333  0.00000000 -0.00000000       0.167
  -0.00000000 -0.00000000  0.25000000       0.167
   0.33333333 -0.00000000  0.25000000       0.167
  -0.33333333 -0.00000000  0.25000000       0.167
  -0.00000000 -0.00000000  0.50000000       0.083
   0.33333333 -0.00000000  0.50000000       0.167
 
 position of ions in fractional coordinates (direct lattice) 
   0.77848884  0.95237240  0.06775620
   0.89102583  0.95842646  0.40168837
   0.77537921  0.80283196  0.91231691
   0.72133480  0.45254451  0.56471206
   0.61238201  0.29657582  0.07439314
   0.10783370  0.79592296  0.07920467
   0.60870753  0.45847756  0.89884759
   0.72453135  0.30295133  0.40814565
   0.38827947  0.45794559  0.39995965
   0.22031452  0.80190492  0.41329219
   0.11172356  0.95791362  0.90268585
   0.39168445  0.29604447  0.57542738
   0.88746450  0.79646782  0.57833724
   0.22378646  0.95150729  0.56875732
   0.27920451  0.30204215  0.90959368
   0.27598970  0.45163060  0.06623295
   0.69970660  0.03317165  0.39894998
   0.84150977  0.04958152  0.02689085
   0.83557048  0.70553145  0.95239740
   0.65835017  0.54977078  0.52597157
   0.66433015  0.20573431  0.44943394
   0.29938764  0.72132700  0.08072698
   0.80014909  0.53311848  0.89772704
   0.80552037  0.22220783  0.07668646
   0.19470382  0.53214926  0.39909809
   0.15777107  0.70461356  0.45288216
   0.16385938  0.04875733  0.52745806
   0.34189220  0.20484429  0.94972867
   0.69434681  0.72222005  0.57997278
   0.30512760  0.03223912  0.89992629
   0.20017022  0.22131887  0.57780524
   0.33597814  0.54892267  0.02659604
   0.69109220  0.07752682  0.40682709
   0.82938725  0.09360884  0.04163210
   0.82342741  0.66155827  0.93650425
   0.67047455  0.59375218  0.54182521
   0.67643913  0.16172398  0.43451491
   0.30830221  0.67700934  0.07188702
   0.80874176  0.57743590  0.90671755
   0.81455682  0.17783807  0.06912984
   0.18542149  0.57648108  0.40764405
   0.17007088  0.66062971  0.43701060
   0.17631517  0.09277133  0.54213948
   0.32961891  0.16082446  0.93494669
   0.68534029  0.67789172  0.57137053
   0.31435366  0.07660671  0.90750033
   0.19142140  0.17696778  0.56983052
   0.32354227  0.59289269  0.04238832
   0.61985251  0.09085866  0.59109041
   0.89368958  0.12264378  0.87215289
   0.88739383  0.63242743  0.10572242
   0.60617436  0.62287687  0.37298624
   0.61243148  0.13269566  0.60436366
   0.37972413  0.66384517  0.88728929
   0.87996327  0.59063239  0.09138703
   0.88610531  0.16448776  0.88524385
   0.11378009  0.58965947  0.59198397
   0.10595484  0.63146660  0.60602656
   0.11244279  0.12182755  0.37235718
   0.39379207  0.13177306  0.10439532
   0.61378671  0.66467988  0.38710378
   0.38596748  0.08992790  0.09137996
   0.12009179  0.16366186  0.38562800
   0.38744419  0.62204906  0.87309604
   0.80752600  0.97968701  0.22405186
   0.80319133  0.77546648  0.75571437
   0.69230000  0.47978719  0.72145789
   0.69673782  0.27558927  0.25156918
   0.19124809  0.77462048  0.25682776
   0.30382928  0.47895641  0.22302841
   0.19603582  0.97889039  0.72524137
   0.30816936  0.27475918  0.75305528
   0.75645117  0.10635057  0.23097930
   0.75064010  0.64896474  0.74658892
   0.74341600  0.60635805  0.73151255
   0.74923844  0.14900068  0.24496536
   0.24309928  0.64805751  0.24723846
   0.25059309  0.60544842  0.23229127
   0.24919260  0.10546708  0.73164455
   0.25661442  0.14811498  0.74563799
   0.95212097  0.87726415  0.99042250
   0.04695904  0.87711582  0.49046432
   0.54783204  0.37734630  0.48696808
   0.45271430  0.37720424  0.98706870
   0.44823163  0.14232494  0.24913887
   0.92810637  0.56763347  0.22502180
   0.93432388  0.18739677  0.75109367
   0.57172752  0.06793562  0.72527486
   0.56557112  0.68767608  0.25351611
   0.55178651  0.61241167  0.22790550
   0.05153896  0.64190296  0.75120115
   0.05831725  0.11128136  0.22729162
   0.94143383  0.64287837  0.25118276
   0.07205186  0.18659735  0.25148922
   0.06568979  0.56664145  0.72572142
   0.42775985  0.68686836  0.75354036
   0.44161649  0.61161427  0.72767693
   0.55840658  0.14326238  0.74950372
   0.94804081  0.11207324  0.72731827
   0.43405194  0.06699410  0.22550396
   0.56279295  0.46923576  0.05038666
   0.43753712  0.28525995  0.42391323
   0.21644538  0.45624028  0.90294373
   0.27971757  0.79712175  0.57673890
   0.06634861  0.96887485  0.05406025
   0.21978204  0.29726341  0.07310378
   0.71909856  0.95712470  0.90428345
   0.93284043  0.78551451  0.42695582
   0.28320243  0.95608377  0.40525356
   0.78079524  0.45736818  0.40123009
   0.56696287  0.28562989  0.92305488
   0.93692208  0.96922769  0.55307959
   0.78396471  0.29836406  0.57157743
   0.43373396  0.46886641  0.55134524
   0.06200464  0.78514903  0.92767897
   0.71601339  0.79823594  0.07588609
   0.84258190  0.91644837  0.14881602
   0.91188401  0.92047869  0.35359589
   0.84083468  0.83854583  0.83150277
   0.65715635  0.41660622  0.64535127
   0.58991114  0.33441599  0.12294103
   0.08705458  0.83386557  0.12741508
   0.58779249  0.42056890  0.85022722
   0.65898001  0.33864813  0.32760533
   0.41074761  0.42012887  0.35110249
   0.15633816  0.83785326  0.33230691
   0.08924445  0.92005630  0.85436468
   0.41264368  0.33397489  0.62374556
   0.90986684  0.83432088  0.62671039
   0.15825458  0.91580876  0.64955093
   0.34334847  0.33797268  0.82866505
   0.34160872  0.41593340  0.14643915
   0.77525870  0.02195297  0.20815248
   0.76981108  0.73328016  0.77129366
   0.72468954  0.52203571  0.70647158
   0.73002385  0.23339084  0.26768873
   0.22370978  0.73237951  0.27189763
   0.27030955  0.52113043  0.20774393
   0.22946568  0.02108048  0.70911155
   0.27578596  0.23250323  0.76856783
   0.64580761  0.00696218  0.54938060
   0.90642253  0.03702628  0.86854885
   0.90019651  0.71796611  0.11143142
   0.59338210  0.53732268  0.36738295
   0.59973991  0.21825811  0.60827211
   0.35318247  0.74764752  0.93086012
   0.85400122  0.50682526  0.04760669
   0.85888790  0.24845754  0.92588039
   0.14145013  0.50579797  0.54944519
   0.09306843  0.71702196  0.61197411
   0.09907593  0.03624872  0.36884054
   0.40678111  0.21737336  0.10814076
   0.64098121  0.74854377  0.42967661
   0.35847342  0.00598299  0.05060448
   0.14628297  0.24754395  0.42755474
   0.40075773  0.53653132  0.86754530
 
 position of ions in cartesian coordinates  (Angst):
   7.63937311 31.42051200  2.74634521
   8.74463583 31.79783654  4.65311655
   7.61053104 26.94231231  7.15978481
   7.08080834 15.21381775  4.32186953
   6.01109318  9.81291734  1.15738978
   1.05576232 26.27104631  2.42272178
   5.97550111 15.58728926  6.22933557
   7.11254862 10.20073947  3.06394033
   3.81076816 15.30410717  3.40173332
   2.16047396 26.64607748  4.33019424
   1.09443218 32.04782912  7.48937992
   3.84504210 10.06225386  3.99420547
   8.71051914 26.55471760  5.25213216
   2.19420073 31.65887141  5.58191237
   2.74118119 10.43787158  5.90200617
   2.70793395 14.91829321  1.49547900
   6.86983739  1.30551411  2.34275199
   8.26144682  1.64813267  0.27588707
   8.20188547 23.75720452  7.14556273
   6.46203190 18.39719289  4.34349645
   6.52194027  7.01904029  3.05668330
   2.93664458 23.81359577  2.24647418
   7.85471225 18.04639015  6.40823794
   7.90753089  7.36338981  0.98607635
   1.91003987 17.74898220  3.58074962
   1.54686848 23.46102450  4.31313050
   1.60922031  1.88762407  3.10901183
   3.35704409  7.25617530  5.88834916
   6.81485169 24.10884695  5.07712104
   2.99669098  1.54161975  5.17812316
   1.96511953  7.60103199  3.82221553
   3.29645528 18.10334496  1.51227683
   6.78510742  2.77139209  2.49737368
   8.14228591  3.10686261  0.46857759
   8.08281498 22.29964800  6.94646424
   6.58091875 19.85499891  4.54239150
   6.64096798  5.56077561  2.86302780
   3.02432003 22.34844108  2.08649136
   7.93891587 19.51161507  6.56908521
   7.99640476  5.89720157  0.83323437
   1.81875346 19.21444692  3.73910184
   1.66776818 22.00312503  4.11414487
   1.73135926  3.34588046  3.30134756
   3.23669685  5.79767331  5.69542948
   6.72658551 22.64346930  4.91844585
   3.08711093  3.00774366  5.33107126
   1.87938433  6.13523863  3.66703894
   3.17421965 19.56074639  1.71077895
   6.08589961  3.30886626  3.57421361
   8.77457285  4.50595877  5.24541371
   8.70981814 20.89723731  2.16800103
   5.94931144 20.72486956  3.65812987
   6.01290237  4.69463389  3.75315917
   3.72664375 22.34885398  6.67303044
   8.63700696 19.51228852  1.98313234
   8.69997270  5.89185974  5.42334385
   1.11560244 19.74690493  4.81599482
   1.03863785 21.13209782  4.99922417
   1.10395099  4.21299204  2.41157255
   3.86572971  4.39800314  0.91846900
   6.02390711 22.10996487  3.84178444
   3.78905207  3.01210584  0.74095351
   1.17890514  5.59866784  2.59050818
   3.80257540 20.96394373  6.48897486
   7.92455234 32.40386877  3.69950090
   7.88347461 25.95710857  6.20480417
   6.79586167 16.19505083  5.27735645
   6.83957865  9.21566902  2.10907709
   1.87500705 25.66362491  3.37615734
   2.98135637 15.90228577  2.45149292
   1.92186044 32.64459224  6.53626545
   3.02544155  9.45542126  4.94759436
   7.42643256  3.62759770  1.57275226
   7.36801444 21.78351140  5.83933698
   7.29723232 20.37142098  5.64825792
   7.35547825  5.04054021  1.75775247
   2.38452669 21.48775058  3.00798351
   2.45823913 20.07564799  2.81764054
   2.44704358  3.86516690  4.40640425
   2.51976534  5.27803876  4.59145103
   9.34553158 29.43672717  7.78696396
   0.45835880 29.16569825  4.95377239
   5.37761033 12.69435119  3.69484127
   4.44444787 12.95600450  6.52742126
   4.40034726  4.82280548  1.76462825
   9.10992072 18.82554129  2.68314836
   9.17309819  6.57535808  4.72025229
   5.61369293  2.62492348  4.27746446
   5.55028179 22.79664771  3.14202838
   5.41520079 20.30274387  2.81027551
   0.50455828 21.55333572  5.84746270
   0.57241589  3.78820572  1.56360349
   9.24051437 21.31909499  3.01797017
   0.70700389  6.28305652  1.88747973
   0.64373618 19.05959421  5.51647799
   4.19797414 23.03632881  5.97249505
   4.33426318 20.54262739  5.63935490
   5.48266076  5.12014913  4.60152565
   9.30801864  4.08048018  4.39876821
   4.26139038  2.32776491  1.44390243
   5.52356329 15.48998185  1.44957467
   4.29504447  9.62616760  3.10918480
   2.12444569 15.51578952  6.24671713
   2.74390384 26.57548753  5.24427533
   0.64779117 31.95712462  2.70919007
   2.15670305  9.83493602  1.15151695
   7.05739649 32.02261024  7.49689751
   9.15584190 26.11313977  4.36744446
   2.77728792 31.72260562  4.66707841
   7.66433127 15.28570952  3.40777215
   5.56635490  9.90415609  5.93775890
   9.19538659 32.23439716  5.53754631
   7.69627530 10.13659704  3.97842269
   4.25718144 15.74460561  4.28642748
   0.60699870 26.36785301  7.20245536
   7.02660843 26.34542928  2.41008344
   8.26885613 30.27982987  3.11648730
   8.94949249 30.52169053  4.28658003
   8.25290369 28.07618406  6.79060366
   6.45097350 14.07245668  4.68950404
   5.79040471 11.08576035  1.52623814
   0.85168185 27.54708490  2.78991356
   5.77024464 14.31215568  5.85987649
   6.46875041 11.33421000  2.69617652
   4.03142930 14.03187235  3.03119115
   1.53213667 27.78760023  3.96053477
   0.87382044 30.77454702  7.12174196
   4.05073201 11.33794348  4.36200671
   8.93037721 27.82788688  5.62005391
   1.55107777 30.52549389  5.95101516
   3.37067693 11.57882254  5.53271291
   3.35239614 13.78463158  1.86134907
   7.61136604  0.83419719  1.23414072
   7.55594122 24.57519945  6.18840935
   7.11366920 17.57932559  5.29726403
   7.16654830  7.83364062  2.09575924
   2.19388242 24.27963550  3.35678711
   2.65209356 17.28395432  2.46948061
   2.25366202  1.07228983  4.06945760
   2.70769491  8.07118172  4.93064944
   6.34097798  0.52192268  3.12988044
   8.89989880  1.68259547  5.01266680
   8.83519377 23.71912134  2.41249458
   5.82403843 17.90253071  3.41419672
   5.88798335  7.51634521  3.98749394
   3.46580957 25.13368661  7.12767214
   8.38238105 16.72719312  1.52725528
   8.43249975  8.68064716  5.86177791
   1.38751624 16.96067253  4.36705362
   0.91180866 23.95466164  5.24509251
   0.97303965  1.39095242  2.17939847
   3.99293202  7.22087240  1.15199219
   6.29063096 24.89628750  4.29096267
   3.51938997  0.22407032  0.30175576
   1.43577788  8.38524637  3.03607090
   3.93359834 18.14283113  6.24544800
 


--------------------------------------------------------------------------------------------------------


 k-point  1 :   0.0000 0.0000 0.0000  plane waves:   60763
 k-point  2 :   0.3333 0.0000-0.0000  plane waves:   60753
 k-point  3 :  -0.0000-0.0000 0.2500  plane waves:   60797
 k-point  4 :   0.3333-0.0000 0.2500  plane waves:   60717
 k-point  5 :  -0.3333-0.0000 0.2500  plane waves:   60722
 k-point  6 :  -0.0000-0.0000 0.5000  plane waves:   60670
 k-point  7 :   0.3333-0.0000 0.5000  plane waves:   60725

 maximum and minimum number of plane-waves per node :     15224    15138

 maximum number of plane-waves:     60797
 maximum index in each direction: 
   IXMAX=   19   IYMAX=   66   IZMAX=   11
   IXMIN=  -19   IYMIN=  -66   IZMIN=  -11


 real space projection operators:
  total allocation   :      12169.60 KBytes
  max/ min on nodes  :       3044.47       3041.51


 parallel 3D FFT for wavefunctions:
    minimum data exchange during FFTs selected (reduces bandwidth)
 parallel 3D FFT for charge:
    minimum data exchange during FFTs selected (reduces bandwidth)


 total amount of memory used by VASP MPI-rank0    99380. kBytes
=======================================================================

   base      :      30000. kBytes
   nonlr-proj:      10189. kBytes
   fftplans  :       4374. kBytes
   grid      :      11801. kBytes
   one-center:       1213. kBytes
   wavefun   :      41803. kBytes
 
     INWAV:  cpu time    0.0002: real time    0.0006
 Broyden mixing: mesh for mixing (old mesh)
   NGX = 39   NGY =133   NGZ = 23
  (NGX  =120   NGY  =400   NGZ  = 72)
  gives a total of 119301 points

 initial charge density was supplied:
 charge density of overlapping atoms calculated
 number of electron     600.0000000 magnetization       0.0000000
 keeping initial charge density in first step


--------------------------------------------------------------------------------------------------------


 Maximum index for non-local projection operator          596
 Maximum index for augmentation-charges          393 (set IRDMAX)


--------------------------------------------------------------------------------------------------------


 First call to EWALD:  gamma=   0.145
 Maximum number of real-space cells 3x 1x 5
 Maximum number of reciprocal cells 2x 7x 2

    FEWALD:  cpu time    0.0143: real time    0.0143


--------------------------------------- Iteration      1(   1)  ---------------------------------------


    POTLOK:  cpu time    0.2116: real time    0.2467
    SETDIJ:  cpu time    0.0639: real time    0.0642
     EDDAV:  cpu time   28.6990: real time   28.8033
       DOS:  cpu time    0.0056: real time    0.0056
    --------------------------------------------
      LOOP:  cpu time   28.9802: real time   29.1199

 eigenvalue-minimisations  : 10752
 total energy-change (2. order) : 0.4581168E+04  (-0.3113574E+05)
 number of electron     600.0000000 magnetization       0.0000000
 augmentation part      600.0000000 magnetization       0.0000000

 Free energy of the ion-electron system (eV)
  ---------------------------------------------------
  alpha Z        PSCENC =       974.02493684
  Ewald energy   TEWEN  =     -5479.80723460
  -Hartree energ DENC   =    -20381.88508036
  -exchange      EXHF   =         0.00000000
  -V(xc)+E(xc)   XCENC  =      2070.27695741
  PAW double counting   =     21424.79691592   -21559.01982888
  entropy T*S    EENTRO =        -0.03361096
  eigenvalues    EBANDS =      -282.78934721
  atomic energy  EATOM  =     27815.60422923
  Solvation  Ediel_sol  =         0.00000000
  ---------------------------------------------------
  free energy    TOTEN  =      4581.16793737 eV

  energy without entropy =     4581.20154833  energy(sigma->0) =     4581.18474285


--------------------------------------------------------------------------------------------------------




--------------------------------------- Iteration      1(   2)  ---------------------------------------


     EDDAV:  cpu time   31.4787: real time   31.5226
       DOS:  cpu time    0.0050: real time    0.0050
    --------------------------------------------
      LOOP:  cpu time   31.4837: real time   31.5277

 eigenvalue-minimisations  : 12832
 total energy-change (2. order) :-0.5289044E+04  (-0.5086666E+04)
 number of electron     600.0000000 magnetization       0.0000000
 augmentation part      600.0000000 magnetization       0.0000000

 Free energy of the ion-electron system (eV)
  ---------------------------------------------------
  alpha Z        PSCENC =       974.02493684
  Ewald energy   TEWEN  =     -5479.80723460
  -Hartree energ DENC   =    -20381.88508036
  -exchange      EXHF   =         0.00000000
  -V(xc)+E(xc)   XCENC  =      2070.27695741
  PAW double counting   =     21424.79691592   -21559.01982888
  entropy T*S    EENTRO =        -0.02127338
  eigenvalues    EBANDS =     -5571.84616242
  atomic energy  EATOM  =     27815.60422923
  Solvation  Ediel_sol  =         0.00000000
  ---------------------------------------------------
  free energy    TOTEN  =      -707.87654025 eV

  energy without entropy =     -707.85526687  energy(sigma->0) =     -707.86590356


--------------------------------------------------------------------------------------------------------




--------------------------------------- Iteration      1(   3)  ---------------------------------------


     EDDAV:  cpu time   32.3084: real time   32.3505
       DOS:  cpu time    0.0050: real time    0.0050
    --------------------------------------------
      LOOP:  cpu time   32.3135: real time   32.3556

 eigenvalue-minimisations  : 13088
 total energy-change (2. order) :-0.5636284E+03  (-0.5527860E+03)
 number of electron     600.0000000 magnetization       0.0000000
 augmentation part      600.0000000 magnetization       0.0000000

 Free energy of the ion-electron system (eV)
  ---------------------------------------------------
  alpha Z        PSCENC =       974.02493684
  Ewald energy   TEWEN  =     -5479.80723460
  -Hartree energ DENC   =    -20381.88508036
  -exchange      EXHF   =         0.00000000
  -V(xc)+E(xc)   XCENC  =      2070.27695741
  PAW double counting   =     21424.79691592   -21559.01982888
  entropy T*S    EENTRO =        -0.06148083
  eigenvalues    EBANDS =     -6135.43435361
  atomic energy  EATOM  =     27815.60422923
  Solvation  Ediel_sol  =         0.00000000
  ---------------------------------------------------
  free energy    TOTEN  =     -1271.50493889 eV

  energy without entropy =    -1271.44345806  energy(sigma->0) =    -1271.47419847


--------------------------------------------------------------------------------------------------------




--------------------------------------- Iteration      1(   4)  ---------------------------------------


     EDDAV:  cpu time   37.8003: real time   37.8526
       DOS:  cpu time    0.0049: real time    0.0049
    --------------------------------------------
      LOOP:  cpu time   37.8051: real time   37.8574

 eigenvalue-minimisations  : 15488
 total energy-change (2. order) :-0.2388165E+02  (-0.2364858E+02)
 number of electron     600.0000000 magnetization       0.0000000
 augmentation part      600.0000000 magnetization       0.0000000

 Free energy of the ion-electron system (eV)
  ---------------------------------------------------
  alpha Z        PSCENC =       974.02493684
  Ewald energy   TEWEN  =     -5479.80723460
  -Hartree energ DENC   =    -20381.88508036
  -exchange      EXHF   =         0.00000000
  -V(xc)+E(xc)   XCENC  =      2070.27695741
  PAW double counting   =     21424.79691592   -21559.01982888
  entropy T*S    EENTRO =        -0.06206874
  eigenvalues    EBANDS =     -6159.31541936
  atomic energy  EATOM  =     27815.60422923
  Solvation  Ediel_sol  =         0.00000000
  ---------------------------------------------------
  free energy    TOTEN  =     -1295.38659256 eV

  energy without entropy =    -1295.32452382  energy(sigma->0) =    -1295.35555819


--------------------------------------------------------------------------------------------------------




--------------------------------------- Iteration      1(   5)  ---------------------------------------


     EDDAV:  cpu time   33.3711: real time   33.4164
       DOS:  cpu time    0.0055: real time    0.0054
    --------------------------------------------
      LOOP:  cpu time   33.3765: real time   33.4219

 eigenvalue-minimisations  : 13824
 total energy-change (2. order) :-0.5314396E+00  (-0.5296906E+00)
 number of electron     600.0000000 magnetization       0.0000000
 augmentation part      600.0000000 magnetization       0.0000000

 Free energy of the ion-electron system (eV)
  ---------------------------------------------------
  alpha Z        PSCENC =       974.02493684
  Ewald energy   TEWEN  =     -5479.80723460
  -Hartree energ DENC   =    -20381.88508036
  -exchange      EXHF   =         0.00000000
  -V(xc)+E(xc)   XCENC  =      2070.27695741
  PAW double counting   =     21424.79691592   -21559.01982888
  entropy T*S    EENTRO =        -0.06177536
  eigenvalues    EBANDS =     -6159.84715239
  atomic energy  EATOM  =     27815.60422923
  Solvation  Ediel_sol  =         0.00000000
  ---------------------------------------------------
  free energy    TOTEN  =     -1295.91803221 eV

  energy without entropy =    -1295.85625684  energy(sigma->0) =    -1295.88714453


--------------------------------------------------------------------------------------------------------




--------------------------------------- Iteration      1(   6)  ---------------------------------------


     EDDAV:  cpu time   38.7525: real time   38.8015
       DOS:  cpu time    0.0052: real time    0.0052
    --------------------------------------------
      LOOP:  cpu time   38.7577: real time   38.8067

 eigenvalue-minimisations  : 16640
 total energy-change (2. order) :-0.3264046E-01  (-0.3262357E-01)
 number of electron     600.0000000 magnetization       0.0000000
 augmentation part      600.0000000 magnetization       0.0000000

 Free energy of the ion-electron system (eV)
  ---------------------------------------------------
  alpha Z        PSCENC =       974.02493684
  Ewald energy   TEWEN  =     -5479.80723460
  -Hartree energ DENC   =    -20381.88508036
  -exchange      EXHF   =         0.00000000
  -V(xc)+E(xc)   XCENC  =      2070.27695741
  PAW double counting   =     21424.79691592   -21559.01982888
  entropy T*S    EENTRO =        -0.06172944
  eigenvalues    EBANDS =     -6159.87983878
  atomic energy  EATOM  =     27815.60422923
  Solvation  Ediel_sol  =         0.00000000
  ---------------------------------------------------
  free energy    TOTEN  =     -1295.95067267 eV

  energy without entropy =    -1295.88894323  energy(sigma->0) =    -1295.91980795


--------------------------------------------------------------------------------------------------------




--------------------------------------- Iteration      1(   7)  ---------------------------------------


     EDDAV:  cpu time   33.4809: real time   33.5286
       DOS:  cpu time    0.0053: real time    0.0052
    --------------------------------------------
      LOOP:  cpu time   33.4861: real time   33.5338

 eigenvalue-minimisations  : 13888
 total energy-change (2. order) :-0.5203069E-03  (-0.5200965E-03)
 number of electron     600.0000000 magnetization       0.0000000
 augmentation part      600.0000000 magnetization       0.0000000

 Free energy of the ion-electron system (eV)
  ---------------------------------------------------
  alpha Z        PSCENC =       974.02493684
  Ewald energy   TEWEN  =     -5479.80723460
  -Hartree energ DENC   =    -20381.88508036
  -exchange      EXHF   =         0.00000000
  -V(xc)+E(xc)   XCENC  =      2070.27695741
  PAW double counting   =     21424.79691592   -21559.01982888
  entropy T*S    EENTRO =        -0.06171983
  eigenvalues    EBANDS =     -6159.88036869
  atomic energy  EATOM  =     27815.60422923
  Solvation  Ediel_sol  =         0.00000000
  ---------------------------------------------------
  free energy    TOTEN  =     -1295.95119297 eV

  energy without entropy =    -1295.88947315  energy(sigma->0) =    -1295.92033306


--------------------------------------------------------------------------------------------------------




--------------------------------------- Iteration      1(   8)  ---------------------------------------


     EDDAV:  cpu time   39.1443: real time   39.1934
       DOS:  cpu time    0.0103: real time    0.0103
    CHARGE:  cpu time    0.9022: real time    0.9046
    MIXING:  cpu time    0.0147: real time    0.0170
    --------------------------------------------
      LOOP:  cpu time   40.0715: real time   40.1253

 eigenvalue-minimisations  : 16672
 total energy-change (2. order) :-0.1827572E-04  (-0.1827357E-04)
 number of electron     599.9999952 magnetization       0.0004080
 augmentation part       31.9558203 magnetization      -0.0037733

 Broyden mixing:
  rms(total) = 0.96427E+01    rms(broyden)= 0.96422E+01
  rms(prec ) = 0.10305E+02
  weight for this iteration     100.00

 Free energy of the ion-electron system (eV)
  ---------------------------------------------------
  alpha Z        PSCENC =       974.02493684
  Ewald energy   TEWEN  =     -5479.80723460
  -Hartree energ DENC   =    -20381.88508036
  -exchange      EXHF   =         0.00000000
  -V(xc)+E(xc)   XCENC  =      2070.27695741
  PAW double counting   =     21424.79691592   -21559.01982888
  entropy T*S    EENTRO =        -0.06171977
  eigenvalues    EBANDS =     -6159.88038703
  atomic energy  EATOM  =     27815.60422923
  Solvation  Ediel_sol  =         0.00000000
  ---------------------------------------------------
  free energy    TOTEN  =     -1295.95121125 eV

  energy without entropy =    -1295.88949148  energy(sigma->0) =    -1295.92035137


--------------------------------------------------------------------------------------------------------




--------------------------------------- Iteration      1(   9)  ---------------------------------------


    POTLOK:  cpu time    0.1617: real time    0.1625
    SETDIJ:  cpu time    0.0603: real time    0.0603
     EDDAV:  cpu time   45.1146: real time   45.1728
       DOS:  cpu time    0.0061: real time    0.0061
    CHARGE:  cpu time    0.9459: real time    0.9469
    MIXING:  cpu time    0.0089: real time    0.0217
    --------------------------------------------
      LOOP:  cpu time   46.2975: real time   46.3703

 eigenvalue-minimisations  : 19168
 total energy-change (2. order) :-0.4087654E+03  (-0.4498822E+03)
 number of electron     599.9999993 magnetization       0.0001681
 augmentation part       55.4931912 magnetization       0.0408201

 Broyden mixing:
  rms(total) = 0.39164E+02    rms(broyden)= 0.39164E+02
  rms(prec ) = 0.39554E+02
  weight for this iteration     100.00

 eigenvalues of (default mixing * dielectric matrix)
  average eigenvalue GAMMA=   0.0601
  0.0601

 Free energy of the ion-electron system (eV)
  ---------------------------------------------------
  alpha Z        PSCENC =       974.02493684
  Ewald energy   TEWEN  =     -5479.80723460
  -Hartree energ DENC   =    -20999.05147676
  -exchange      EXHF   =         0.00000000
  -V(xc)+E(xc)   XCENC  =      2108.68464074
  PAW double counting   =     32214.16449154   -32307.21297439
  entropy T*S    EENTRO =        -0.08492262
  eigenvalues    EBANDS =     -6031.03834030
  atomic energy  EATOM  =     27815.60422923
  Solvation  Ediel_sol  =         0.00000000
  ---------------------------------------------------
  free energy    TOTEN  =     -1704.71665033 eV

  energy without entropy =    -1704.63172770  energy(sigma->0) =    -1704.67418902


--------------------------------------------------------------------------------------------------------




--------------------------------------- Iteration      1(  10)  ---------------------------------------


    POTLOK:  cpu time    0.1555: real time    0.1559
    SETDIJ:  cpu time    0.0602: real time    0.0602
     EDDAV:  cpu time   34.0897: real time   34.1416
       DOS:  cpu time    0.0051: real time    0.0052
    CHARGE:  cpu time    0.8757: real time    0.8769
    MIXING:  cpu time    0.0052: real time    0.0088
    --------------------------------------------
      LOOP:  cpu time   35.1916: real time   35.2486

 eigenvalue-minimisations  : 13696
 total energy-change (2. order) : 0.7737989E+02  (-0.4227301E+02)
 number of electron     599.9999997 magnetization      -0.0005181
 augmentation part       53.6206311 magnetization       0.0352437

 Broyden mixing:
  rms(total) = 0.26264E+02    rms(broyden)= 0.26263E+02
  rms(prec ) = 0.26769E+02
  weight for this iteration     100.00

 eigenvalues of (default mixing * dielectric matrix)
  average eigenvalue GAMMA=   0.2956
  0.2956  0.2956

 Free energy of the ion-electron system (eV)
  ---------------------------------------------------
  alpha Z        PSCENC =       974.02493684
  Ewald energy   TEWEN  =     -5479.80723460
  -Hartree energ DENC   =    -21022.89166212
  -exchange      EXHF   =         0.00000000
  -V(xc)+E(xc)   XCENC  =      2110.24824110
  PAW double counting   =     33005.77389660   -33108.23007642
  entropy T*S    EENTRO =        -0.07116243
  eigenvalues    EBANDS =     -5921.98793204
  atomic energy  EATOM  =     27815.60422923
  Solvation  Ediel_sol  =         0.00000000
  ---------------------------------------------------
  free energy    TOTEN  =     -1627.33676385 eV

  energy without entropy =    -1627.26560141  energy(sigma->0) =    -1627.30118263


--------------------------------------------------------------------------------------------------------




--------------------------------------- Iteration      1(  11)  ---------------------------------------


    POTLOK:  cpu time    0.1523: real time    0.1523
    SETDIJ:  cpu time    0.0607: real time    0.0616
     EDDAV:  cpu time   41.6669: real time   41.7199
       DOS:  cpu time    0.0051: real time    0.0051
    CHARGE:  cpu time    0.8749: real time    0.8760
    MIXING:  cpu time    0.0051: real time    0.0069
    --------------------------------------------
      LOOP:  cpu time   42.7650: real time   42.8218

 eigenvalue-minimisations  : 17568
 total energy-change (2. order) : 0.2824140E+03  (-0.1684607E+03)
 number of electron     599.9999990 magnetization       0.0009440
 augmentation part       50.8867698 magnetization      -0.0876813

 Broyden mixing:
  rms(total) = 0.11199E+02    rms(broyden)= 0.11198E+02
  rms(prec ) = 0.14157E+02
  weight for this iteration     100.00

 eigenvalues of (default mixing * dielectric matrix)
  average eigenvalue GAMMA=   0.3469
  0.4032  0.4032  0.2343

 Free energy of the ion-electron system (eV)
  ---------------------------------------------------
  alpha Z        PSCENC =       974.02493684
  Ewald energy   TEWEN  =     -5479.80723460
  -Hartree energ DENC   =    -21102.14090156
  -exchange      EXHF   =         0.00000000
  -V(xc)+E(xc)   XCENC  =      2116.23970870
  PAW double counting   =     36997.22018042   -37142.72636225
  entropy T*S    EENTRO =        -0.01350049
  eigenvalues    EBANDS =     -5523.32385598
  atomic energy  EATOM  =     27815.60422923
  Solvation  Ediel_sol  =         0.00000000
  ---------------------------------------------------
  free energy    TOTEN  =     -1344.92279970 eV

  energy without entropy =    -1344.90929921  energy(sigma->0) =    -1344.91604946


--------------------------------------------------------------------------------------------------------




--------------------------------------- Iteration      1(  12)  ---------------------------------------


    POTLOK:  cpu time    0.1522: real time    0.1523
    SETDIJ:  cpu time    0.0602: real time    0.0602
     EDDAV:  cpu time   36.9080: real time   36.9583
       DOS:  cpu time    0.0050: real time    0.0051
    CHARGE:  cpu time    0.8738: real time    0.8748
    MIXING:  cpu time    0.0049: real time    0.0049
    --------------------------------------------
      LOOP:  cpu time   38.0042: real time   38.0555

 eigenvalue-minimisations  : 15584
 total energy-change (2. order) : 0.1609201E+03  (-0.1164198E+03)
 number of electron     599.9999967 magnetization       0.0060077
 augmentation part       46.9152035 magnetization      -0.0545431

 Broyden mixing:
  rms(total) = 0.47523E+01    rms(broyden)= 0.47511E+01
  rms(prec ) = 0.54601E+01
  weight for this iteration     100.00

 eigenvalues of (default mixing * dielectric matrix)
  average eigenvalue GAMMA=   0.3539
  0.4919  0.3601  0.3601  0.2035

 Free energy of the ion-electron system (eV)
  ---------------------------------------------------
  alpha Z        PSCENC =       974.02493684
  Ewald energy   TEWEN  =     -5479.80723460
  -Hartree energ DENC   =    -21146.02210980
  -exchange      EXHF   =         0.00000000
  -V(xc)+E(xc)   XCENC  =      2118.48473937
  PAW double counting   =     38205.68492743   -38361.42362439
  entropy T*S    EENTRO =        -0.01610794
  eigenvalues    EBANDS =     -5310.53241405
  atomic energy  EATOM  =     27815.60422923
  Solvation  Ediel_sol  =         0.00000000
  ---------------------------------------------------
  free energy    TOTEN  =     -1184.00265792 eV

  energy without entropy =    -1183.98654998  energy(sigma->0) =    -1183.99460395


--------------------------------------------------------------------------------------------------------




--------------------------------------- Iteration      1(  13)  ---------------------------------------


    POTLOK:  cpu time    0.1518: real time    0.1525
    SETDIJ:  cpu time    0.0599: real time    0.0599
     EDDAV:  cpu time   36.6927: real time   36.7403
       DOS:  cpu time    0.0052: real time    0.0052
    CHARGE:  cpu time    0.8758: real time    0.8767
    MIXING:  cpu time    0.0052: real time    0.0052
    --------------------------------------------
      LOOP:  cpu time   37.7907: real time   37.8399

 eigenvalue-minimisations  : 15168
 total energy-change (2. order) : 0.4169310E+01  (-0.5363214E+02)
 number of electron     599.9999956 magnetization       0.0866312
 augmentation part       33.1347258 magnetization      -1.0609625

 Broyden mixing:
  rms(total) = 0.57617E+01    rms(broyden)= 0.57616E+01
  rms(prec ) = 0.63010E+01
  weight for this iteration     100.00

 eigenvalues of (default mixing * dielectric matrix)
  average eigenvalue GAMMA=   0.3930
  0.8598  0.3491  0.3491  0.2034  0.2034

 Free energy of the ion-electron system (eV)
  ---------------------------------------------------
  alpha Z        PSCENC =       974.02493684
  Ewald energy   TEWEN  =     -5479.80723460
  -Hartree energ DENC   =    -21293.40454503
  -exchange      EXHF   =         0.00000000
  -V(xc)+E(xc)   XCENC  =      2127.71077218
  PAW double counting   =     41102.22148920   -41267.31604835
  entropy T*S    EENTRO =        -0.02073679
  eigenvalues    EBANDS =     -5158.84621027
  atomic energy  EATOM  =     27815.60422923
  Solvation  Ediel_sol  =         0.00000000
  ---------------------------------------------------
  free energy    TOTEN  =     -1179.83334760 eV

  energy without entropy =    -1179.81261081  energy(sigma->0) =    -1179.82297921


--------------------------------------------------------------------------------------------------------




--------------------------------------- Iteration      1(  14)  ---------------------------------------


    POTLOK:  cpu time    0.1534: real time    0.1538
    SETDIJ:  cpu time    0.0598: real time    0.0598
     EDDAV:  cpu time   35.9436: real time   35.9942
       DOS:  cpu time    0.0050: real time    0.0050
    CHARGE:  cpu time    0.8731: real time    0.8744
    MIXING:  cpu time    0.0050: real time    0.0050
    --------------------------------------------
      LOOP:  cpu time   37.0400: real time   37.0922

 eigenvalue-minimisations  : 14816
 total energy-change (2. order) :-0.4025378E+02  (-0.8091739E+02)
 number of electron     599.9999971 magnetization       0.1047096
 augmentation part       39.5688768 magnetization       0.2750146

 Broyden mixing:
  rms(total) = 0.76515E+01    rms(broyden)= 0.76515E+01
  rms(prec ) = 0.87059E+01
  weight for this iteration     100.00

 eigenvalues of (default mixing * dielectric matrix)
  average eigenvalue GAMMA=   0.3908
  1.0387  0.3529  0.3529  0.2318  0.2096  0.1588

 Free energy of the ion-electron system (eV)
  ---------------------------------------------------
  alpha Z        PSCENC =       974.02493684
  Ewald energy   TEWEN  =     -5479.80723460
  -Hartree energ DENC   =    -21430.32818592
  -exchange      EXHF   =         0.00000000
  -V(xc)+E(xc)   XCENC  =      2136.74498231
  PAW double counting   =     46781.96819839   -46943.93915727
  entropy T*S    EENTRO =        -0.01487726
[...]
   80            fft3d_mpi                            50.138125                    10360   5
   81              fftbas_plan_mpi                      50.100227                  10360   6
   82                dfftw_execute                        24.376679                31080   7
   83                map_forward                          20.107862                20720   7
   84                  map_gather                            5.157238              10360   8
   85                  m_alltoallv_z                         5.108135              10360   8
   86                  map_scatter                           5.813379              10360   8
   87          pw_charge                             5.463472                      10360   4
   88          fft3d_mpi                             0.653224                        148   4
   89            fftbas_plan_mpi                       0.600362                      148   5
   90              dfftw_execute                         0.216457                    444   6
   91              map_backward                          0.302625                    296   6
   92                map_gather                            0.087553                  296   7
   93                m_alltoallv_z                         0.206302                  296   7
   94                map_scatter                           0.005137                  296   7
   95        depsum                                0.258669                           74   3
   96        fft3d_mpi                             0.594501                          148   3
   97          fftbas_plan_mpi                       0.581487                        148   4
   98            dfftw_execute                         0.082120                      444   5
   99            map_backward                          0.388252                      296   5
  100              map_gather                            0.015913                    148   6
  101              m_alltoallv_z                         0.350426                    148   6
  102              map_scatter                           0.019517                    148   6
  103      brmix                                 0.984801                             74   2
  104        brpre                                 0.007415                          148   3
  105        setg0                                 0.085885                           76   3
  106        broyd                                 0.725785                           74   3
  107          brsav                                 0.023313                       3292   4
  108          brget                                 0.087855                      14298   4
  109      force_and_stress                     25.704233                              1   2
  110        set_charge                            0.876146                            1   3
  111          soft_charge                           0.831092                          1   4
  112            fftwav_mpi                            0.740729                      140   5
  113              fft3d_mpi                             0.670357                    140   6
  114                fftbas_plan_mpi                       0.669822                  140   7
  115                  dfftw_execute                         0.328937                420   8
  116                  map_forward                           0.264902                280   8
  117                    map_gather                            0.068890              140   9
  118                    m_alltoallv_z                         0.064787              140   9
  119                    map_scatter                           0.078005              140   9
  120            pw_charge                             0.072287                      140   5
  121            fft3d_mpi                             0.008057                        2   5
  122              fftbas_plan_mpi                       0.007255                      2   6
  123                dfftw_execute                         0.002921                    6   7
  124                map_backward                          0.003298                    4   7
  125                  map_gather                            0.001138                  4   8
  126                  m_alltoallv_z                         0.002049                  4   8
  127                  map_scatter                           0.000064                  4   8
  128          depsum                                0.003408                          1   4
  129          fft3d_mpi                             0.006967                          2   4
  130            fftbas_plan_mpi                       0.006801                        2   5
  131              dfftw_execute                         0.001048                      6   6
  132              map_backward                          0.004150                      4   6
  133                map_gather                            0.000278                    2   7
  134                m_alltoallv_z                         0.003588                    2   7
  135                map_scatter                           0.000250                    2   7
  136        forloc                                0.085633                            1   3
  137        fornlr                                3.879663                            1   3
  138          rspher_all                            0.091792                          3   4
  139          phaser                                0.297768                         21   4
  140          rpro_isp                              3.477788                         21   4
  141            fftwav_mpi                            2.608304                      504   5
  142              fft3d_mpi                             2.353560                    504   6
  143                fftbas_plan_mpi                       2.351941                  504   7
  144                  dfftw_execute                         1.181971               1512   8
  145                  map_forward                           0.910952               1008   8
  146                    map_gather                            0.234597              504   9
  147                    m_alltoallv_z                         0.214960              504   9
  148                    map_scatter                           0.277842              504   9
  149            rpromu                                0.862227                      126   5
  150              crrexp_mul_wave                       0.432534                  78624   6
  151              rpromu_gemm                           0.280924                  19656   6
  152        fordep                                0.178352                            1   3
  153          setdij_                               0.177775                          6   4
  154        setdij_                               0.591339                           20   3
  155        set_dd_paw                            0.030322                            1   3
  156        strkin                                0.018477                            1   3
  157        strelo                                0.003897                            1   3
  158        strnlr                               11.593843                            1   3
  159          rspher_all                            0.282507                          9   4
  160          phaser                                0.897705                         63   4
  161          rpro_isp                             10.381830                         63   4
  162            fftwav_mpi                            7.783353                     1512   5
  163              fft3d_mpi                             7.040738                   1512   6
  164                fftbas_plan_mpi                       7.035576                 1512   7
  165                  dfftw_execute                         3.504745               4536   8
  166                  map_forward                           2.722173               3024   8
  167                    map_gather                            0.702277             1512   9
  168                    m_alltoallv_z                         0.637583             1512   9
  169                    map_scatter                           0.831346             1512   9
  170            rpromu                                2.586190                      378   5
  171              crrexp_mul_wave                       1.302363                 235872   6
  172              rpromu_gemm                           0.848787                  58968   6
  173        fft3d_mpi                             0.066371                           22   3
  174          fftbas_plan_mpi                       0.064407                         22   4
  175            dfftw_execute                         0.012579                       66   5
  176            map_forward                           0.016995                       20   5
  177              map_gather                            0.000884                     10   6
  178              m_alltoallv_z                         0.014371                     10   6
  179              map_scatter                           0.001582                     10   6
  180            map_backward                          0.018528                       24   5
  181              map_gather                            0.001367                     12   6
  182              m_alltoallv_z                         0.015430                     12   6
  183              map_scatter                           0.001535                     12   6
  184        forhar                                0.154816                            2   3
  185        strehar                               0.003739                            1   3
  186        chggra                                0.012213                            1   3
  187          fft3d_mpi                             0.009511                          3   4
  188            fftbas_plan_mpi                       0.009257                        3   5
  189              dfftw_execute                         0.001624                      9   6
  190              map_forward                           0.003745                      4   6
  191                map_gather                            0.000226                    2   7
  192                m_alltoallv_z                         0.003173                    2   7
  193                map_scatter                           0.000314                    2   7
  194              map_backward                          0.001623                      2   6
  195                map_gather                            0.000109                    1   7
  196                m_alltoallv_z                         0.001325                    1   7
  197                map_scatter                           0.000175                    1   7
  198        brmix                                 0.018457                            1   3
  199          brpre                                 0.000069                          2   4
  200          setg0                                 0.001107                          1   4
  201          broyd                                 0.014331                          1   4
  202            brget                                 0.001698                      273   5
  203            brsav                                 0.000261                       49   5
 
 Flat profile
 ============
 
             routine name                   CPU           calls
 ---------------------------------------------------------------
 eddav                                1259.038712          82
 dfftw_execute                         359.641299      466341
 redis_pw                              259.341200      142781
 total_time                            256.898588           1
 orth1                                 185.634256      154401
 redis_proj                             97.531309      180430
 map_scatter                            94.055496      155749
 m_alltoallv_z                          89.659902      155749
 fftbas_plan_mpi                        87.440840      155449
 map_gather                             83.359672      155749
 crrexp_mul_work_add                    72.040321     8020116
 racc0                                  69.484160       51411
 fftwav_mpi                             64.816796      101730
 rpro1                                  47.512142       37635
 map_forward                            45.135239      205622
 vhamil                                 42.664344       51411
 crrexp_mul_wave                        34.666512     6211764
 lincom                                 26.777444        1162
 phaser                                 17.567532        1239
 w1_copy                                11.858930      154233
 fftext_mpi                              9.225163       51411
 eccp                                    8.331391       13776
 force_and_stress                        8.190965           1
 pw_charge                               5.535759       10500
 kinhamil                                5.252285       51411
 apply_precond                           3.212195       37635
 setdij_                                 3.072744         103
 overl                                   2.844046       89060
 set_charge                              2.606591          75
 set_dd_paw                              2.337351          77
 overl1                                  1.973030       51411
 setup_precond                           1.860393       13776
 rpromu_gemm                             1.229234       85176
 map_backward                            1.043743      105272
 soft_charge                             0.903504          75
 fft3d_mpi                               0.879501      155447
 hamiltmu                                0.707654       51411
 rpromu                                  0.635153         546
 broyd                                   0.626990          75
 rspher_all                              0.427878          14
 raccmu_                                 0.303690       51411
 choleski                                0.269751          14
 depsum                                  0.262077          75
 w1_projall                              0.244189       37635
 orthch                                  0.201417           1
 brmix                                   0.168665          75
 forhar                                  0.154816           2
 brget                                   0.089553       14571
 setg0                                   0.086992          77
 forloc                                  0.085633           1
 truncate_high_frequency_w1              0.046803       65187
 strnlr                                  0.031801           1
 brsav                                   0.023573        3341
 rpro_isp                                0.021693          91
 strkin                                  0.018477           1
 fornlr                                  0.012314           1
 brpre                                   0.007484         150
 brgrid                                  0.006278           1
 strelo                                  0.003897           1
 strehar                                 0.003739           1
 chggra                                  0.002702           1
 fordep                                  0.000577           1
 redis_pw_over_bands                     0.000001           1
 ---------------------------------------------------------------
  summed up times    3268.06639099121     
 
 Accumulative profile
 ====================
 
             routine name                   CPU           calls
 ---------------------------------------------------------------
 total_time                           3268.066391           1
 eddav                                2904.491363          82
 fft3d_mpi                             761.169063      155447
 fftbas_plan_mpi                       760.336193      155449
 fftwav_mpi                            586.673676      101730
 hamiltmu                              433.194286       51411
 dfftw_execute                         359.641299      466341
 redis_pw                              259.341200      142781
 kinhamil                              246.021086       51411
 fftext_mpi                            240.768801       51411
 map_forward                           225.691508      205622
 orth1                                 185.634256      154401
 raccmu_                               143.801202       51411
 racc0                                 141.524482       51411
 redis_proj                             97.531309      180430
 map_scatter                            94.055496      155749
 m_alltoallv_z                          89.659902      155749
 map_backward                           87.562545      105272
 map_gather                             83.359672      155749
 w1_projall                             80.544835       37635
 rpro1                                  80.300646       37635
 crrexp_mul_work_add                    72.040321     8020116
 set_charge                             66.753139          75
 soft_charge                            63.283002          75
 vhamil                                 42.664344       51411
 crrexp_mul_wave                        34.666512     6211764
 lincom                                 26.777444        1162
 force_and_stress                       25.704233           1
 phaser                                 17.567532        1239
 rpro_isp                               15.068198          91
 w1_copy                                11.858930      154233
 strnlr                                 11.593843           1
 eccp                                    8.331391       13776
 pw_charge                               5.535759       10500
 fornlr                                  3.879663           1
 rpromu                                  3.742395         546
 apply_precond                           3.212195       37635
 setdij_                                 3.072744         103
 overl                                   2.844046       89060
 set_dd_paw                              2.337351          77
 overl1                                  1.973030       51411
 setup_precond                           1.860393       13776
 orthch                                  1.651422           1
 rpromu_gemm                             1.229234       85176
 brmix                                   1.003258          75
 broyd                                   0.740116          75
 rspher_all                              0.427878          14
 choleski                                0.269751          14
 depsum                                  0.262077          75
 fordep                                  0.178352           1
 forhar                                  0.154816           2
 brget                                   0.089553       14571
 setg0                                   0.086992          77
 forloc                                  0.085633           1
 truncate_high_frequency_w1              0.046803       65187
 brsav                                   0.023573        3341
 strkin                                  0.018477           1
 chggra                                  0.012213           1
 brpre                                   0.007484         150
 brgrid                                  0.006278           1
 strelo                                  0.003897           1
 strehar                                 0.003739           1
 redis_pw_over_bands                     0.000001           1
 ---------------------------------------------------------------
 
Profiling took   9.764504  5.592807  0.012798  0.012431 seconds
Profiling took  11.336871 seconds
